filename,formula,num_atoms,volume,density,space_group,lattice_a,lattice_b,lattice_c,alpha,beta,gamma
crystal_001.cif,Fe3SiO3,7,340.03986155882234,1.189679253631638,1,6.192984980000001,7.045362419999999,7.90465705,90.81549571000001,90.19983784000001,99.58444974
crystal_002.cif,Si2CO,4,596.4357644816539,0.23436891873988389,1,6.65035121,9.18823614,9.9221637,81.71441624,86.95043583000002,84.20166664000001
crystal_003.cif,Si2C2O,5,623.1461567081649,0.2563286960323492,1,7.17556232,8.90549245,9.84054597,92.42756014000001,97.29954262000001,90.2246126