material_id,formula,pbe_bandgap,hse_bandgap,bandgap_correction,dataset,data_source,confidence,mpid,dimensionality
JVASP-23339,U4 Te4 S4,0.0008,0.0009,9.999999999999994e-05,jarvis_3d,jarvis,high,mp-19866,3D
JVASP-23340,Dy4 Si4 Ru4,0.0019,0.0053,0.0034000000000000002,jarvis_3d,jarvis,high,mp-19873,3D
JVASP-23351,F14 Na4 Mg2 Al2,7.0655,11.15,4.0845,jarvis_3d,jarvis,high,mp-19931,3D
JVASP-23355,Lu4 Mn4 Si4,0.0027,0.0076,0.0049,jarvis_3d,jarvis,high,mp-19967,3D
JVASP-23424,Ta4 Si4 Rh4,0.0027,0.0167,0.013999999999999999,jarvis_3d,jarvis,high,mp-20436,3D
JVASP-23443,Sc4 Si4 Rh4,0.006,0.019,0.013,jarvis_3d,jarvis,high,mp-20492,3D
JVASP-23458,V8 C4,0.0132,0.0372,0.023999999999999997,jarvis_3d,jarvis,high,mp-20648,3D
JVASP-23483,Cr4 Cu1 Se8 In1,0.0369,0.0929,0.055999999999999994,jarvis_3d,jarvis,high,mp-20809,3D
JVASP-23509,Nb4 Ni4 P4,0.0126,0.0195,0.0069,jarvis_3d,jarvis,high,mp-20932,3D
JVASP-23510,Cr12 C8,0.001,0.007,0.006,jarvis_3d,jarvis,high,mp-20937,3D
JVASP-23528,Sc4 Ni4 B16,0.0014,0.0055,0.0040999999999999995,jarvis_3d,jarvis,high,mp-21081,3D
JVASP-23546,U4 Rh4 S12,0.0014,0.0015,0.00010000000000000005,jarvis_3d,jarvis,high,mp-21217,3D
JVASP-23551,Nb4 Si4 Ir4,0.0037,0.0054,0.0017000000000000001,jarvis_3d,jarvis,high,mp-21248,3D
JVASP-23746,Ho4 Si4 Ir4,0.0031,0.0079,0.0048000000000000004,jarvis_3d,jarvis,high,mp-22222,3D
JVASP-23752,Er4 Si4 Ru4,0.0021,0.0038,0.0017000000000000001,jarvis_3d,jarvis,high,mp-22247,3D
JVASP-23757,Hf4 Si4 Mo4,0.0013,0.0111,0.0098,jarvis_3d,jarvis,high,mp-22258,3D
JVASP-23759,Co4 Mo4 P4,0.002,0.0044,0.0024000000000000002,jarvis_3d,jarvis,high,mp-22262,3D
JVASP-23764,Ag5 Pb2 O6,0.0067,0.0143,0.0076,jarvis_3d,jarvis,high,mp-22286,3D
JVASP-23780,U4 Co4 Sn2,0.0003,0.004,0.0037,jarvis_3d,jarvis,high,mp-22360,3D
JVASP-23791,Sc4 Si4 Ni4,0.0053,0.0061,0.0008000000000000004,jarvis_3d,jarvis,high,mp-22426,3D
JVASP-23794,Hf4 Fe4 P4,0.0107,0.0187,0.008000000000000002,jarvis_3d,jarvis,high,mp-22434,3D
JVASP-23802,K3 Na1 S2 O8,5.9255,8.7022,2.776699999999999,jarvis_3d,jarvis,high,mp-22457,3D
JVASP-23811,Ho4 Si4 Ru4,0.0057,0.0058,9.99999999999994e-05,jarvis_3d,jarvis,high,mp-22497,3D
JVASP-23813,Zr4 Cu4 Si4,0.0055,0.0141,0.0086,jarvis_3d,jarvis,high,mp-22522,3D
JVASP-23840,Ta4 Ni4 B8,0.015,0.0268,0.011800000000000001,jarvis_3d,jarvis,high,mp-22709,3D
JVASP-23841,Nb4 Si4 Pd4,0.0108,0.0139,0.0030999999999999986,jarvis_3d,jarvis,high,mp-22722,3D
JVASP-23849,Sm4 Mn4 B16,0.0042,0.008,0.0038000000000000004,jarvis_3d,jarvis,high,mp-22785,3D
JVASP-23862,Na1 Cl1,5.3211,8.2417,2.9205999999999994,jarvis_3d,jarvis,high,mp-22862,3D
JVASP-23867,O8 Na2 Cl2,5.9254,8.1367,2.2112999999999996,jarvis_3d,jarvis,high,mp-22968,3D
JVASP-23872,Se4 Nb4 I4,0.9776,1.0652,0.0875999999999999,jarvis_3d,jarvis,high,mp-23051,3D
JVASP-23920,Ba2 Cl2 F2,5.4152,7.233,1.8178,jarvis_3d,jarvis,high,mp-23432,3D
JVASP-23967,H8 C2 N4 O2,5.1664,7.1439,1.9775,jarvis_3d,jarvis,high,mp-23778,3D
JVASP-23972,H8 N2 F2,5.9769,10.9575,4.9806,jarvis_3d,jarvis,high,mp-23794,3D
JVASP-23973,H16 O4 F8,7.2755,10.9274,3.6519000000000004,jarvis_3d,jarvis,high,mp-23798,3D
JVASP-23980,H2 F4 K2,7.4052,11.2398,3.834600000000001,jarvis_3d,jarvis,high,mp-23846,3D
JVASP-24028,H4 O2 Mg1 Cl2,5.5396,7.7068,2.1672000000000002,jarvis_3d,jarvis,high,mp-24336,3D
JVASP-24241,K2 Li6 Pb2 O8,1.5556,2.6827,1.1271,jarvis_3d,jarvis,high,mp-559106,3D
JVASP-24251,Na9 Zr1 P4 Cl1 O16,4.2844,4.5114,0.2270000000000003,jarvis_3d,jarvis,high,mp-559150,3D
JVASP-24252,Ba2 Sr2 Ta4 O14,2.2435,3.5383,1.2948,jarvis_3d,jarvis,high,mp-559151,3D
JVASP-24259,Ba4 Bi4 B4 O16,3.4579,4.582,1.1240999999999999,jarvis_3d,jarvis,high,mp-559186,3D
JVASP-24261,Rb4 Mo6 O20,3.3491,3.9477,0.5986000000000002,jarvis_3d,jarvis,high,mp-559198,3D
JVASP-24262,Cd2 In4 S8,1.0379,2.5661,1.5282,jarvis_3d,jarvis,high,mp-559200,3D
JVASP-24267,Rb4 Ge4 Bi4 S16,1.7724,2.5028,0.7304000000000002,jarvis_3d,jarvis,high,mp-559227,3D
JVASP-24270,Nd6 Si4 S16 Br2,2.6835,3.4336,0.7501000000000002,jarvis_3d,jarvis,high,mp-559237,3D
JVASP-24272,Nd2 Ta2 Cl2 O7,3.177,4.2273,1.0502999999999996,jarvis_3d,jarvis,high,mp-559243,3D
JVASP-24274,Na4 Te8 Mo2 O24,2.481,3.182,0.7010000000000001,jarvis_3d,jarvis,high,mp-559249,3D
JVASP-24278,Ag8 Te8 O24,1.2512,1.3619,0.11070000000000002,jarvis_3d,jarvis,high,mp-559257,3D
JVASP-24285,Na8 Al6 Ge6 Cl2 O24,4.1708,6.8222,2.6513999999999998,jarvis_3d,jarvis,high,mp-559286,3D
JVASP-24288,Er4 Te10 O26,3.0386,4.6989,1.6602999999999999,jarvis_3d,jarvis,high,mp-559304,3D
JVASP-24293,Na4 Co2 Ge2 O8,0.0174,0.021,0.0036000000000000025,jarvis_3d,jarvis,high,mp-559327,3D
JVASP-24299,Ba4 Na1 Bi3 O12,0.4303,1.0221,0.5918,jarvis_3d,jarvis,high,mp-559352,3D
JVASP-24301,Sr2 Bi4 B8 O20,3.6316,4.9561,1.3245,jarvis_3d,jarvis,high,mp-559364,3D
JVASP-24305,I4 O4 F12,3.4394,4.8998,1.4604,jarvis_3d,jarvis,high,mp-559377,3D
JVASP-24306,Ba10 Ta4 Cl4 O18,3.356,5.1701,1.8140999999999998,jarvis_3d,jarvis,high,mp-559378,3D
JVASP-24307,Sb4 Te4 Cl4 O12,3.318,4.6139,1.2959,jarvis_3d,jarvis,high,mp-559379,3D
JVASP-24318,Pr4 Zr4 O14,3.7853,4.6833,0.8980000000000001,jarvis_3d,jarvis,high,mp-559426,3D
JVASP-24321,Na2 P2 Pd2 S8,1.1162,1.3389,0.2226999999999999,jarvis_3d,jarvis,high,mp-559446,3D
JVASP-24326,Rb2 Mg2 As2 H24 O20,4.3987,6.5853,2.1866000000000003,jarvis_3d,jarvis,high,mp-559463,3D
JVASP-24329,K8 Zr4 Si8 O28,4.7852,5.3896,0.6044,jarvis_3d,jarvis,high,mp-559489,3D
JVASP-24333,Nd8 S6 N2 Cl6,3.0762,3.8053,0.7290999999999999,jarvis_3d,jarvis,high,mp-559514,3D
JVASP-24417,Sc2 Ta2 O8,4.0686,5.065,0.9964000000000004,jarvis_3d,jarvis,high,mp-558781,3D
JVASP-24425,Rb4 Li2 V2 S8,1.493,1.8119,0.31889999999999996,jarvis_3d,jarvis,high,mp-558815,3D
JVASP-24447,Kr2 F4,2.4244,4.0063,1.5819000000000005,jarvis_3d,jarvis,high,mp-558928,3D
JVASP-24465,K2 Sr1 P4 O12,5.9415,8.4333,2.4917999999999996,jarvis_3d,jarvis,high,mp-558990,3D
JVASP-24901,Sb2 S2 Cl18,1.4029,2.4476,1.0447,jarvis_3d,jarvis,high,mp-557809,3D
JVASP-24905,K4 Cd2 Au8 S8,1.9639,2.9217,0.9578,jarvis_3d,jarvis,high,mp-557832,3D
JVASP-24912,B2 Cl2 O4 F8,2.0936,2.2474,0.15379999999999994,jarvis_3d,jarvis,high,mp-557856,3D
JVASP-24924,K2 Ga2 As4 O14,2.9187,4.6206,1.7018999999999997,jarvis_3d,jarvis,high,mp-557918,3D
JVASP-24934,Bi4 O8,0.9704,1.4463,0.4758999999999999,jarvis_3d,jarvis,high,mp-557993,3D
JVASP-24935,Ca4 Se4 O12,4.3574,6.0164,1.6589999999999998,jarvis_3d,jarvis,high,mp-557997,3D
JVASP-24944,Sm6 Cu2 Sn2 S14,1.6005,2.147,0.5464999999999998,jarvis_3d,jarvis,high,mp-558042,3D
JVASP-24954,Nb2 Tl5 S4 Br9,1.6204,1.9498,0.3293999999999999,jarvis_3d,jarvis,high,mp-558099,3D
JVASP-24968,Pr8 S6 N2 Cl6,3.0194,3.7424,0.7229999999999999,jarvis_3d,jarvis,high,mp-558143,3D
JVASP-24974,Rb4 P4 O8 F8,5.5869,8.3899,2.803000000000001,jarvis_3d,jarvis,high,mp-558162,3D
JVASP-24999,Ba4 In2 Cl2 O6,2.1495,3.9387,1.7891999999999997,jarvis_3d,jarvis,high,mp-558243,3D
JVASP-25000,As2 I4 F12,0.0053,1.3718,1.3664999999999998,jarvis_3d,jarvis,high,mp-558244,3D
JVASP-25001,Pr2 Ta6 O18,3.3413,4.3435,1.0021999999999998,jarvis_3d,jarvis,high,mp-558248,3D
JVASP-25004,Pr6 Si4 S16 I2,2.6109,3.2703,0.6594000000000002,jarvis_3d,jarvis,high,mp-558259,3D
JVASP-25012,Zn3 Te1 As2 Pb3 O14,3.0746,4.3933,1.3186999999999998,jarvis_3d,jarvis,high,mp-558298,3D
JVASP-25015,K4 Sn1 Sb2 F14,4.0266,6.4104,2.3838,jarvis_3d,jarvis,high,mp-558309,3D
JVASP-25017,K2 Na2 Pr2 Nb2 O10,3.4317,4.4282,0.9965000000000002,jarvis_3d,jarvis,high,mp-558317,3D
JVASP-25021,K10 Au2 I4 O4,2.2374,3.3661,1.1286999999999998,jarvis_3d,jarvis,high,mp-558332,3D
JVASP-25022,Nd5 As2 Cl1 O10,3.337,4.7153,1.3782999999999999,jarvis_3d,jarvis,high,mp-558340,3D
JVASP-25029,Ca4 Mg4 Ge4 O16,3.7513,5.8455,2.0942000000000003,jarvis_3d,jarvis,high,mp-558362,3D
JVASP-25035,Te4 O4 F8,4.1643,6.0534,1.8891,jarvis_3d,jarvis,high,mp-558387,3D
JVASP-25569,K8 Ba2 Ge6 O18,3.407,5.4576,2.0506,jarvis_3d,jarvis,high,mp-557584,3D
JVASP-25574,Rb4 Cu1 Si2 O7,1.966,4.0818,2.1158,jarvis_3d,jarvis,high,mp-557618,3D
JVASP-25578,Hg8 Se4 O12,2.291,2.8618,0.5708000000000002,jarvis_3d,jarvis,high,mp-557637,3D
JVASP-25581,Sr3 P6 N8 O6,4.7238,6.5904,1.8666,jarvis_3d,jarvis,high,mp-557650,3D
JVASP-25583,Rb4 Na4 Si8 O20,4.7965,6.9519,2.1554,jarvis_3d,jarvis,high,mp-557656,3D
JVASP-25585,Ca2 Mg5 Si8 O22 F2,5.3485,7.507,2.1585,jarvis_3d,jarvis,high,mp-557662,3D
JVASP-25590,Rb2 Be4 P6 O20,5.8337,8.5117,2.677999999999999,jarvis_3d,jarvis,high,mp-557673,3D
JVASP-25591,Nb4 I4 O8,0.7991,1.3021,0.503,jarvis_3d,jarvis,high,mp-557685,3D
JVASP-25596,K8 Na4 Te2 O12,2.4697,4.0643,1.5946000000000002,jarvis_3d,jarvis,high,mp-557698,3D
JVASP-25599,Cd2 Au4 F24,1.6381,1.8389,0.2008000000000001,jarvis_3d,jarvis,high,mp-557715,3D
JVASP-25601,K2 Cu8 As2 S8,1.3356,1.5634,0.2278,jarvis_3d,jarvis,high,mp-557728,3D
JVASP-25609,K12 P4 O16,4.324,7.5169,3.1929,jarvis_3d,jarvis,high,mp-557753,3D
JVASP-25611,K2 Ba8 Sb6 O2,1.0698,1.5338,0.46399999999999997,jarvis_3d,jarvis,high,mp-557761,3D
JVASP-25615,Sc6 Te3 O18,2.9033,3.8019,0.8985999999999996,jarvis_3d,jarvis,high,mp-557773,3D
JVASP-25616,K4 Sc2 Si8 O20 F2,4.8803,5.9804,1.1001000000000003,jarvis_3d,jarvis,high,mp-557777,3D
JVASP-25619,K2 Sn2 S2 O8 F2,3.897,5.4254,1.5284,jarvis_3d,jarvis,high,mp-557399,3D
JVASP-25620,Na12 Pb2 O10,1.1568,2.7,1.5432000000000001,jarvis_3d,jarvis,high,mp-557401,3D
JVASP-25624,Nd2 Te4 Br2 O10,2.4421,3.855,1.4129,jarvis_3d,jarvis,high,mp-557410,3D
JVASP-25626,Ba1 Si6 N8 O1,4.2624,5.3852,1.1227999999999998,jarvis_3d,jarvis,high,mp-557414,3D
JVASP-25630,Ge4 Cl4 O8 F20,1.9652,2.2324,0.2672000000000001,jarvis_3d,jarvis,high,mp-557432,3D
JVASP-25632,K2 Bi2 P4 S12,2.1717,2.8559,0.6842000000000001,jarvis_3d,jarvis,high,mp-557437,3D
JVASP-25633,K1 Au1 I4 O12,2.213,2.4516,0.23859999999999992,jarvis_3d,jarvis,high,mp-557441,3D
JVASP-25634,Ba4 Ca2 U2 O12,2.3116,2.4414,0.12979999999999992,jarvis_3d,jarvis,high,mp-557448,3D
JVASP-25638,F11 Na1 Co1 Zr2,1.8132,1.9915,0.17830000000000013,jarvis_3d,jarvis,high,mp-557458,3D
JVASP-25645,Sr8 Rh2 O12,2.1246,2.1698,0.04519999999999991,jarvis_3d,jarvis,high,mp-557481,3D
JVASP-25646,Ca10 As6 O24 F2,4.2292,6.0662,1.8370000000000006,jarvis_3d,jarvis,high,mp-557482,3D
JVASP-25647,Yb2 Cl2 F2,6.0354,7.8853,1.8498999999999999,jarvis_3d,jarvis,high,mp-557483,3D
JVASP-25649,Na4 Bi8 Au4 O20,0.9961,1.425,0.42890000000000006,jarvis_3d,jarvis,high,mp-557498,3D
JVASP-25651,Na6 Ca4 Bi2 O12,1.5724,2.5994,1.0270000000000001,jarvis_3d,jarvis,high,mp-557506,3D
JVASP-25653,Tb6 Cu2 Ge2 S14,1.7365,2.3856,0.6491000000000002,jarvis_3d,jarvis,high,mp-557517,3D
JVASP-25655,P4 Cl8 O4 F4,5.0547,6.3979,1.3431999999999995,jarvis_3d,jarvis,high,mp-557522,3D
JVASP-25656,Pb4 S2 O8 F4,4.0345,5.4948,1.4602999999999993,jarvis_3d,jarvis,high,mp-557531,3D
JVASP-25658,Zn4 P6 N12 O1,3.05,5.0235,1.9735000000000005,jarvis_3d,jarvis,high,mp-557537,3D
JVASP-25662,K6 Lu2 Si4 O14,3.5258,7.0073,3.4815,jarvis_3d,jarvis,high,mp-557543,3D
JVASP-25664,Sr4 Cu2 F12,4.085,6.7599,2.6749,jarvis_3d,jarvis,high,mp-557552,3D
JVASP-25665,Sm12 Si8 S34,2.422,3.2066,0.7845999999999997,jarvis_3d,jarvis,high,mp-557561,3D
JVASP-25667,K6 Sc2 Si4 O14,3.5473,5.1922,1.6448999999999998,jarvis_3d,jarvis,high,mp-557577,3D
JVASP-25668,Tl4 In4 As8 O28,3.0856,3.7521,0.6665000000000001,jarvis_3d,jarvis,high,mp-557583,3D
JVASP-25722,K4 Sn2 Au4 S8,1.5016,2.558,1.0563999999999998,jarvis_3d,jarvis,high,mp-557121,3D
JVASP-25775,Cd4 Bi2 As2 O12,1.9699,3.6242,1.6543,jarvis_3d,jarvis,high,mp-556653,3D
JVASP-25777,Y4 Si2 C2 O14,4.8925,6.1545,1.2619999999999996,jarvis_3d,jarvis,high,mp-556661,3D
JVASP-25779,Tl4 Bi4 P8 S28,2.2065,2.7829,0.5764,jarvis_3d,jarvis,high,mp-556665,3D
JVASP-25781,Ba6 Lu2 Ir4 O18,0.0128,0.0301,0.017299999999999996,jarvis_3d,jarvis,high,mp-556674,3D
JVASP-25783,Na4 Ca6 Si6 O20,4.6798,7.2129,2.5331,jarvis_3d,jarvis,high,mp-556679,3D
JVASP-25784,K6 Zr6 F30,5.8202,6.19,0.3698000000000006,jarvis_3d,jarvis,high,mp-556689,3D
JVASP-25786,Na4 Sr4 B4 O12,4.1925,6.4518,2.2593000000000005,jarvis_3d,jarvis,high,mp-556695,3D
JVASP-25787,Na8 P4 H4 O12,5.9937,8.7027,2.7090000000000005,jarvis_3d,jarvis,high,mp-556699,3D
JVASP-25790,Ga8 Bi4 S16,2.539,3.2483,0.7092999999999998,jarvis_3d,jarvis,high,mp-556712,3D
JVASP-25791,Tl3 Ga9 S13 O2,2.2532,3.1899,0.9367000000000001,jarvis_3d,jarvis,high,mp-556717,3D
JVASP-25792,K4 Ti2 Si6 O18,3.3857,3.569,0.18330000000000002,jarvis_3d,jarvis,high,mp-556719,3D
JVASP-25794,Re4 S2 Cl24,0.0227,1.0585,1.0358,jarvis_3d,jarvis,high,mp-556726,3D
JVASP-25802,Y6 Cu2 Ge2 S14,1.7223,2.2938,0.5715000000000001,jarvis_3d,jarvis,high,mp-556781,3D
JVASP-25807,K4 Si6 Sn2 O18,4.0797,6.0262,1.9465000000000003,jarvis_3d,jarvis,high,mp-556797,3D
JVASP-25815,Sm6 Si4 Cl10 O12,4.6157,6.3862,1.7704999999999993,jarvis_3d,jarvis,high,mp-556820,3D
JVASP-25817,Ru2 Cl2 O4 F12,0.2518,0.4843,0.23249999999999998,jarvis_3d,jarvis,high,mp-556834,3D
JVASP-25823,Ag4 Hg2 S2 I4,1.1693,2.2704,1.1011,jarvis_3d,jarvis,high,mp-556866,3D
JVASP-25844,Rb2 Al2 Sb2 O7,3.7176,4.7342,1.0166000000000004,jarvis_3d,jarvis,high,mp-556275,3D
JVASP-25872,Al2 S2 Cl6 O4,3.7992,5.1515,1.3523000000000005,jarvis_3d,jarvis,high,mp-556418,3D
JVASP-25875,Nb4 Cl12 O4,2.6638,3.1564,0.4925999999999999,jarvis_3d,jarvis,high,mp-556422,3D
JVASP-25879,Ag2 Bi2 P4 S12,1.1085,1.5146,0.4060999999999999,jarvis_3d,jarvis,high,mp-556434,3D
JVASP-25880,K2 Na2 Sm2 Nb2 O10,3.5497,4.378,0.8283,jarvis_3d,jarvis,high,mp-556438,3D
JVASP-25884,Pr2 B4 Cl2 O8,5.1055,6.9913,1.8857999999999997,jarvis_3d,jarvis,high,mp-556450,3D
JVASP-25886,F6 Na1 K2 Mo1,1.5409,2.5738,1.0329,jarvis_3d,jarvis,high,mp-556487,3D
JVASP-25888,Ta4 Sn2 O12,2.3934,2.9215,0.5280999999999998,jarvis_3d,jarvis,high,mp-556489,3D
JVASP-25889,N2 Cl2 O2 F8,1.9217,2.9933,1.0716,jarvis_3d,jarvis,high,mp-556500,3D
JVASP-25896,Ba2 Nd4 Pt2 O10,2.4887,2.81,0.3212999999999999,jarvis_3d,jarvis,high,mp-556525,3D
JVASP-25900,Na2 Zr1 Cu2 S4,0.0215,0.0237,0.0022000000000000006,jarvis_3d,jarvis,high,mp-556536,3D
JVASP-25917,Rb2 Al2 As4 O14,3.2687,4.792,1.5232999999999999,jarvis_3d,jarvis,high,mp-556630,3D
JVASP-26103,Tb1 Rh3 C1,0.0369,0.0596,0.022699999999999998,jarvis_3d,jarvis,high,mp-542103,3D
JVASP-26114,Na6 O6 P2 S2,4.1929,6.9349,2.742,jarvis_3d,jarvis,high,mp-542136,3D
JVASP-26125,Yb4 Mg4 Ge4,0.0127,0.0523,0.039599999999999996,jarvis_3d,jarvis,high,mp-542172,3D
JVASP-26127,Th2 Te4 I4,0.867,1.4492,0.5822,jarvis_3d,jarvis,high,mp-542180,3D
JVASP-26131,Ba3 Nb2 O8,4.7038,5.2577,0.5538999999999996,jarvis_3d,jarvis,high,mp-542201,3D
JVASP-26180,Mo4 As6,0.0018,0.002,0.0002000000000000001,jarvis_3d,jarvis,high,mp-542454,3D
JVASP-26316,Nd1 Bi2 Cl1 O4,1.2039,2.649,1.4451,jarvis_3d,jarvis,high,mp-545529,3D
JVASP-26318,Ba2 O6 Ta1 Bi1,2.5757,3.5552,0.9795000000000003,jarvis_3d,jarvis,high,mp-545544,3D
JVASP-26324,Lu1 Bi2 Br1 O4,1.5669,3.3505,1.7835999999999999,jarvis_3d,jarvis,high,mp-545847,3D
JVASP-26327,Tm1 Bi2 Cl1 O4,1.4968,3.2385,1.7417000000000002,jarvis_3d,jarvis,high,mp-546082,3D
JVASP-26328,O8 Sc2 As2,3.6975,4.8668,1.1692999999999998,jarvis_3d,jarvis,high,mp-546125,3D
JVASP-26329,Sm1 Bi2 Cl1 O4,1.2787,2.7695,1.4908,jarvis_3d,jarvis,high,mp-546152,3D
JVASP-26331,Dy1 Bi2 I1 O4,1.5217,2.7204,1.1987,jarvis_3d,jarvis,high,mp-546266,3D
JVASP-26334,O6 Ba2 Nd1 Bi1,1.855,2.3932,0.5382000000000002,jarvis_3d,jarvis,high,mp-546321,3D
JVASP-26335,Tm1 Bi2 Br1 O4,1.5286,3.3123,1.7837,jarvis_3d,jarvis,high,mp-546350,3D
JVASP-26336,N1 Na1 C1 O1,4.5827,7.3966,2.8139000000000003,jarvis_3d,jarvis,high,mp-546500,3D
JVASP-26337,Er1 Bi2 Br1 O4,1.5041,3.2426,1.7385,jarvis_3d,jarvis,high,mp-546621,3D
JVASP-26338,Ho1 Bi2 Br1 O4,1.4808,3.2113,1.7305000000000001,jarvis_3d,jarvis,high,mp-546625,3D
JVASP-26348,Cl2 Bi2 Sr2 O4,3.4503,4.8613,1.411,jarvis_3d,jarvis,high,mp-547244,3D
JVASP-26352,O6 K2 Sb2,2.8003,4.1816,1.3813000000000004,jarvis_3d,jarvis,high,mp-547792,3D
JVASP-26358,Ho1 Bi2 Cl1 O4,1.4361,3.1053,1.6692000000000002,jarvis_3d,jarvis,high,mp-549127,3D
JVASP-26359,Nd1 Bi2 I1 O4,1.386,2.7214,1.3354000000000001,jarvis_3d,jarvis,high,mp-549333,3D
JVASP-26360,Tb1 Bi2 Br1 O4,1.4395,3.0336,1.5940999999999999,jarvis_3d,jarvis,high,mp-549475,3D
JVASP-26365,Rb1 Ge1 I1 O6,2.5257,3.6248,1.0991,jarvis_3d,jarvis,high,mp-549697,3D
JVASP-26366,Er1 Bi2 Cl1 O4,1.4662,3.1982,1.732,jarvis_3d,jarvis,high,mp-549709,3D
JVASP-26367,Nb2 I4 O2,0.0237,0.846,0.8223,jarvis_3d,jarvis,high,mp-549720,3D
JVASP-26369,O6 B2 Ba2 Ca1,4.2697,5.526,1.2562999999999995,jarvis_3d,jarvis,high,mp-549737,3D
JVASP-26370,Sm1 Bi2 Br1 O4,1.3686,2.8612,1.4926000000000001,jarvis_3d,jarvis,high,mp-550111,3D
JVASP-26375,Cd2 Bi2 Cl2 O4,3.0883,4.3788,1.2905000000000002,jarvis_3d,jarvis,high,mp-550553,3D
JVASP-26377,Lu1 Bi2 I1 O4,1.6011,2.8618,1.2607000000000002,jarvis_3d,jarvis,high,mp-550635,3D
JVASP-26378,O6 Ba2 Te1 Ca1,3.2554,4.2886,1.0332,jarvis_3d,jarvis,high,mp-550685,3D
JVASP-26379,O4 Be1 Si1 Ba1,4.7357,7.3364,2.6007000000000007,jarvis_3d,jarvis,high,mp-550751,3D
JVASP-26380,Lu1 Bi2 Cl1 O4,1.5449,3.3072,1.7623,jarvis_3d,jarvis,high,mp-550805,3D
JVASP-26382,O7 As2 Sc1 Na1,3.6482,5.181,1.5328,jarvis_3d,jarvis,high,mp-550925,3D
JVASP-26383,Li2 O4 Zn2 K2,2.5225,4.205,1.6825,jarvis_3d,jarvis,high,mp-551092,3D
JVASP-26384,Ho1 Bi2 I1 O4,1.5384,2.7496,1.2112,jarvis_3d,jarvis,high,mp-551101,3D
JVASP-26385,Sr4 I4 O2,3.3504,4.4648,1.1144000000000003,jarvis_3d,jarvis,high,mp-551203,3D
JVASP-26387,Er1 Bi2 I1 O4,1.5568,2.7977,1.2409,jarvis_3d,jarvis,high,mp-551250,3D
JVASP-26389,O2 Cu1 Ba2 Cl1,2.4154,2.7,0.2846000000000002,jarvis_3d,jarvis,high,mp-551456,3D
JVASP-26392,Y1 Bi2 I1 O4,1.5271,2.9829,1.4558,jarvis_3d,jarvis,high,mp-551816,3D
JVASP-26393,O1 Tl1 Br4 Nb1,1.3522,1.5401,0.18789999999999996,jarvis_3d,jarvis,high,mp-551826,3D
JVASP-26396,Pr1 Bi2 Br1 O4,1.2888,2.7159,1.4271,jarvis_3d,jarvis,high,mp-551900,3D
JVASP-26397,Dy1 Bi2 Cl1 O4,1.411,3.1272,1.7162000000000002,jarvis_3d,jarvis,high,mp-552008,3D
JVASP-26399,O5 Nd2 S2 Ti2,0.7621,0.9374,0.1753,jarvis_3d,jarvis,high,mp-552028,3D
JVASP-26400,Bi2 Se1 O2,0.2769,1.2524,0.9755,jarvis_3d,jarvis,high,mp-552098,3D
JVASP-26403,O6 Ba2 Tb1 Bi1,1.8707,2.4475,0.5767999999999998,jarvis_3d,jarvis,high,mp-552191,3D
JVASP-26405,Sm1 Bi2 I1 O4,1.4378,2.7738,1.336,jarvis_3d,jarvis,high,mp-552292,3D
JVASP-26409,Y1 Bi2 Cl1 O4,1.4302,3.0114,1.5812000000000002,jarvis_3d,jarvis,high,mp-552604,3D
JVASP-26411,Tm1 Bi2 I1 O4,1.5745,2.8099,1.2353999999999998,jarvis_3d,jarvis,high,mp-552738,3D
JVASP-26415,O5 Pr2 S2 Ti2,0.7867,0.9939,0.20720000000000005,jarvis_3d,jarvis,high,mp-552963,3D
JVASP-26416,Dy1 Bi2 Br1 O4,1.461,3.2105,1.7495,jarvis_3d,jarvis,high,mp-552992,3D
JVASP-26417,Ca2 Bi2 Cl2 O4,3.6306,4.9154,1.2848000000000002,jarvis_3d,jarvis,high,mp-553025,3D
JVASP-26418,Pr1 Bi2 Cl1 O4,1.1642,2.5915,1.4273,jarvis_3d,jarvis,high,mp-553082,3D
JVASP-26419,Nd1 Bi2 Br1 O4,1.3166,2.7743,1.4577000000000002,jarvis_3d,jarvis,high,mp-553242,3D
JVASP-26420,Y1 Bi2 Br1 O4,1.4606,3.0857,1.6251000000000002,jarvis_3d,jarvis,high,mp-553243,3D
JVASP-26443,Sc2 Nb2 O8,3.3156,3.7871,0.47150000000000025,jarvis_3d,jarvis,high,mp-553961,3D
JVASP-26455,Be4 B2 O6 F2,6.2946,9.7704,3.4758000000000004,jarvis_3d,jarvis,high,mp-554023,3D
JVASP-26472,Sm6 Cu2 Si2 S14,1.6807,2.1845,0.5037999999999998,jarvis_3d,jarvis,high,mp-554097,3D
JVASP-26473,Ti12 O2,0.0066,0.0081,0.0014999999999999996,jarvis_3d,jarvis,high,mp-554098,3D
JVASP-26494,K1 Rb2 Mo1 F6,1.1052,2.5786,1.4733999999999998,jarvis_3d,jarvis,high,mp-554168,3D
JVASP-26635,Rb2 Sb2 Br2 F6,3.8792,5.3169,1.4377000000000004,jarvis_3d,jarvis,high,mp-555234,3D
JVASP-26682,K3 Co2 F7,0.0343,0.0522,0.017900000000000006,jarvis_3d,jarvis,high,mp-555480,3D
JVASP-26716,Na4 Ti5 O12,2.5703,2.9667,0.39639999999999986,jarvis_3d,jarvis,high,mp-555678,3D
JVASP-26727,Ba4 Hg8 Cl8 O8,1.6467,3.0354,1.3887,jarvis_3d,jarvis,high,mp-555736,3D
JVASP-26728,Rb1 Au1 S2 O8,1.8576,2.0178,0.1601999999999999,jarvis_3d,jarvis,high,mp-555741,3D
JVASP-26735,Al2 S2 Cl14,2.6913,3.771,1.0796999999999999,jarvis_3d,jarvis,high,mp-555805,3D
JVASP-26736,Na2 Sr6 Bi2 O12,1.7628,2.6045,0.8416999999999999,jarvis_3d,jarvis,high,mp-555812,3D
JVASP-26739,Hg6 As16 S16 Br12,1.715,2.7165,1.0014999999999998,jarvis_3d,jarvis,high,mp-555833,3D