material_id,formula,pbe_bandgap,hse_bandgap,bandgap_correction,dataset,data_source,confidence,mpid,dimensionality
JVASP-16501,Ti1 Cu1,0.0029,0.0067,0.0038000000000000004,jarvis_3d,jarvis,high,mp-11364,3D
JVASP-16507,Pd2 In1 Er1,0.0211,0.0275,0.0063999999999999994,jarvis_3d,jarvis,high,mp-11371,3D
JVASP-16510,Dy1 Tl1,0.0029,0.0105,0.007600000000000001,jarvis_3d,jarvis,high,mp-11374,3D
JVASP-16515,Ga3 Hf1,0.0036,0.0077,0.0041,jarvis_3d,jarvis,high,mp-11387,3D
JVASP-16522,Sc2 Ni2 Ga4,0.001,0.0061,0.0051,jarvis_3d,jarvis,high,mp-11401,3D
JVASP-16526,Sc2 Ga2,0.0002,0.0006,0.00039999999999999996,jarvis_3d,jarvis,high,mp-11411,3D
JVASP-16527,Sc2 Ga4,0.0024,0.0032,0.0008000000000000004,jarvis_3d,jarvis,high,mp-11412,3D
JVASP-16529,Ga3 Ta1,0.0013,0.0055,0.0042,jarvis_3d,jarvis,high,mp-11416,3D
JVASP-16530,Ga2 Tb2,0.0035,0.0039,0.00039999999999999975,jarvis_3d,jarvis,high,mp-11417,3D
JVASP-16541,Hf1 Os1,0.0211,0.0767,0.055600000000000004,jarvis_3d,jarvis,high,mp-11452,3D
JVASP-16547,K4 Hg4,0.0043,0.006,0.0017000000000000001,jarvis_3d,jarvis,high,mp-11462,3D
JVASP-16549,Mg1 Hg2,0.0018,0.0065,0.004699999999999999,jarvis_3d,jarvis,high,mp-11464,3D
JVASP-16550,Na1 Hg2,0.0113,0.0165,0.0052000000000000015,jarvis_3d,jarvis,high,mp-11466,3D
JVASP-16551,Nd1 Hg1,0.0001,0.0081,0.008,jarvis_3d,jarvis,high,mp-11467,3D
JVASP-16554,Hg2 Pt1,0.0068,0.0176,0.0108,jarvis_3d,jarvis,high,mp-11470,3D
JVASP-16559,Tm1 Hg1,0.0085,0.031,0.0225,jarvis_3d,jarvis,high,mp-11475,3D
JVASP-16560,Ho1 Ir1,0.0086,0.0099,0.0013000000000000008,jarvis_3d,jarvis,high,mp-11476,3D
JVASP-16580,Ni6 Mo2,0.0037,0.0091,0.0054,jarvis_3d,jarvis,high,mp-11506,3D
JVASP-16590,Sc1 Ni1,0.0191,0.0338,0.014699999999999998,jarvis_3d,jarvis,high,mp-11521,3D
JVASP-16591,Ni3 Sn1,0.066,0.1266,0.06059999999999999,jarvis_3d,jarvis,high,mp-11522,3D
JVASP-16601,Al1 Nb1 Ru2,0.0346,0.1236,0.089,jarvis_3d,jarvis,high,mp-11537,3D
JVASP-16605,Zr1 Os1,0.0291,0.0493,0.020199999999999996,jarvis_3d,jarvis,high,mp-11541,3D
JVASP-16610,Zr1 Pt1,0.0143,0.0143,0.0,jarvis_3d,jarvis,high,mp-11554,3D
JVASP-16619,Sm1 Tl1,0.0113,0.0349,0.023600000000000003,jarvis_3d,jarvis,high,mp-11568,3D
JVASP-16626,Zn1 Yb1,0.0117,0.0158,0.004100000000000001,jarvis_3d,jarvis,high,mp-11577,3D
JVASP-16636,Ni1 Zn1 Sb1,0.006,0.0604,0.054400000000000004,jarvis_3d,jarvis,high,mp-11621,3D
JVASP-16639,Yb3 Pb1 O1,0.0338,0.1534,0.11960000000000001,jarvis_3d,jarvis,high,mp-11652,3D
JVASP-16642,Ba2 Cu2 Sb2,0.0423,0.0825,0.04020000000000001,jarvis_3d,jarvis,high,mp-11700,3D
JVASP-16645,C2 Ni1 Er1,0.0066,0.0271,0.020499999999999997,jarvis_3d,jarvis,high,mp-11723,3D
JVASP-16649,Lu6 Sb2 Mo1,0.0009,0.0262,0.0253,jarvis_3d,jarvis,high,mp-11755,3D
JVASP-16657,Co3 Se4,0.0011,0.0015,0.00039999999999999996,jarvis_3d,jarvis,high,mp-11800,3D
JVASP-16670,Cu1 Ni1 Sb2,0.0064,0.0066,0.00019999999999999966,jarvis_3d,jarvis,high,mp-11834,3D
JVASP-16671,Ba4 Ag4,0.0032,0.0055,0.0022999999999999995,jarvis_3d,jarvis,high,mp-11840,3D
JVASP-16693,Sm3 Mg3 Tl3,0.0055,0.035,0.029500000000000005,jarvis_3d,jarvis,high,mp-11987,3D
JVASP-16694,Al3 Si2 Er2,0.0044,0.0067,0.0023,jarvis_3d,jarvis,high,mp-12004,3D
JVASP-16695,Al3 Si2 Tm2,0.0008,0.0118,0.011,jarvis_3d,jarvis,high,mp-12005,3D
JVASP-16715,Ti6 As2,0.0086,0.0127,0.0040999999999999995,jarvis_3d,jarvis,high,mp-12071,3D
JVASP-16716,B2 Ba1 Ir2,0.0069,0.0097,0.0028000000000000004,jarvis_3d,jarvis,high,mp-12073,3D
JVASP-16717,B2 Fe2 Tb1,0.0018,0.0038,0.002,jarvis_3d,jarvis,high,mp-12075,3D
JVASP-16720,S2 K1 Co2,0.0021,0.0025,0.0004000000000000002,jarvis_3d,jarvis,high,mp-12079,3D
JVASP-16723,Cr1 Ir3,0.0008,0.0053,0.0045,jarvis_3d,jarvis,high,mp-12083,3D
JVASP-16728,Si2 Dy1 Os2,0.0009,0.0016,0.0007000000000000001,jarvis_3d,jarvis,high,mp-12088,3D
JVASP-16732,Si2 Sm1 Ir2,0.0012,0.0047,0.0035000000000000005,jarvis_3d,jarvis,high,mp-12097,3D
JVASP-16737,O2 Rb1,4.5747,6.382,1.8072999999999997,jarvis_3d,jarvis,high,mp-12105,3D
JVASP-16739,V1 Pt2,0.0002,0.0002,0.0,jarvis_3d,jarvis,high,mp-12108,3D
JVASP-16758,Lu2 Ag2 Sn2,0.0057,0.028,0.0223,jarvis_3d,jarvis,high,mp-12505,3D
JVASP-16766,Ti2 Cu6,0.0097,0.017,0.007300000000000001,jarvis_3d,jarvis,high,mp-12546,3D
JVASP-16769,Sr2 Cu2 As2,0.0048,0.4151,0.4103,jarvis_3d,jarvis,high,mp-12557,3D
JVASP-16771,As4 Ta2,0.0167,0.0277,0.011,jarvis_3d,jarvis,high,mp-12561,3D
JVASP-16783,Sc1 Ir3,0.0041,0.0046,0.0004999999999999996,jarvis_3d,jarvis,high,mp-12593,3D
JVASP-16788,Pr1 Tl1,0.0054,0.0168,0.011399999999999999,jarvis_3d,jarvis,high,mp-12599,3D
JVASP-16791,Pr2 Pt2,0.0007,0.0102,0.009500000000000001,jarvis_3d,jarvis,high,mp-12607,3D
JVASP-16797,Ti1 Au4,0.0001,0.0001,0.0,jarvis_3d,jarvis,high,mp-12635,3D
JVASP-16803,Mn1 Au1,0.0002,0.0042,0.004,jarvis_3d,jarvis,high,mp-12674,3D
JVASP-16804,Mn1 Au1,0.0009,0.0021,0.0012,jarvis_3d,jarvis,high,mp-12675,3D
JVASP-16808,Mg2 Rh1,0.0013,0.0081,0.0068,jarvis_3d,jarvis,high,mp-12693,3D
JVASP-16815,Li1 Sn1 Pr1,0.0245,0.0765,0.052,jarvis_3d,jarvis,high,mp-12718,3D
JVASP-16816,Li1 Sn1 Nd1,0.0238,0.0803,0.056499999999999995,jarvis_3d,jarvis,high,mp-12719,3D
JVASP-16828,Pt2 Th2,0.0032,0.0041,0.0009000000000000002,jarvis_3d,jarvis,high,mp-12754,3D
JVASP-16834,Tb1 B6,0.0028,0.0178,0.015,jarvis_3d,jarvis,high,mp-12763,3D
JVASP-16845,Al1 Cu3,0.0027,0.0346,0.0319,jarvis_3d,jarvis,high,mp-12777,3D
JVASP-16849,Ga2 Sr1 Cd2,0.0095,0.0149,0.0054,jarvis_3d,jarvis,high,mp-12783,3D
JVASP-16850,Sm2 Cu2 Sn2,0.053,0.1063,0.05330000000000001,jarvis_3d,jarvis,high,mp-12791,3D
JVASP-16856,Al2 Si2 Sm2,0.004,0.0097,0.0057,jarvis_3d,jarvis,high,mp-12804,3D
JVASP-16857,Cu2 Ge1 Te3,0.0057,0.0106,0.0049,jarvis_3d,jarvis,high,mp-12806,3D
JVASP-16871,Ho4 Si4,0.0038,0.0039,9.999999999999983e-05,jarvis_3d,jarvis,high,mp-12900,3D
JVASP-16907,Ir2 N4,0.0006,0.0165,0.0159,jarvis_3d,jarvis,high,mp-13076,3D
JVASP-16908,Ti1 Bi2 O6,0.0007,0.0031,0.0024,jarvis_3d,jarvis,high,mvc-10862,3D
JVASP-16921,Ag1 N1,0.0053,0.0066,0.0013,jarvis_3d,jarvis,high,mvc-11196,3D
JVASP-16927,Co1 S2,0.0058,0.0284,0.022600000000000002,jarvis_3d,jarvis,high,mvc-11233,3D
JVASP-16928,Fe1 S2,0.0108,0.0323,0.021500000000000002,jarvis_3d,jarvis,high,mvc-11234,3D
JVASP-16930,V1 S2,0.0035,0.0082,0.004700000000000001,jarvis_3d,jarvis,high,mvc-11241,3D
JVASP-16936,Sb1 O2,0.0012,0.002,0.0008000000000000001,jarvis_3d,jarvis,high,mvc-12866,3D
JVASP-17162,Cu2 Sn1 Te3,0.003,0.1113,0.1083,jarvis_3d,jarvis,high,mp-13089,3D
JVASP-17167,Y1 N1,0.0387,0.0824,0.0437,jarvis_3d,jarvis,high,mp-13098,3D
JVASP-17169,N1 Ni1,0.0013,0.013,0.011699999999999999,jarvis_3d,jarvis,high,mp-13116,3D
JVASP-17178,La1 N1,0.0608,0.2437,0.1829,jarvis_3d,jarvis,high,mp-13132,3D
JVASP-17183,Ba1 Al1 Si1,0.001,0.0048,0.0037999999999999996,jarvis_3d,jarvis,high,mp-13149,3D
JVASP-17186,Ag1 Hf2,0.0004,0.0008,0.0004,jarvis_3d,jarvis,high,mp-13155,3D
JVASP-17187,Hf2 Ag2,0.004,0.0078,0.0037999999999999996,jarvis_3d,jarvis,high,mp-13156,3D
JVASP-17188,Zn1 O1,0.6657,1.0753,0.40959999999999996,jarvis_3d,jarvis,high,mp-13161,3D
JVASP-17189,Ti2 Pd1,0.0004,0.0014,0.001,jarvis_3d,jarvis,high,mp-13164,3D
JVASP-17194,N1 Pt1,0.0052,0.0071,0.0019000000000000006,jarvis_3d,jarvis,high,mp-13174,3D
JVASP-17195,N1 Pt1,0.0081,0.0106,0.0025000000000000005,jarvis_3d,jarvis,high,mp-13175,3D
JVASP-17197,Y2 Cu2 Sn2,0.0095,0.1081,0.09860000000000001,jarvis_3d,jarvis,high,mp-13202,3D
JVASP-17220,Si2 Mn2 Yb1,0.0014,0.0102,0.0088,jarvis_3d,jarvis,high,mp-13398,3D
JVASP-17240,Si2 Mn2 Sm1,0.0003,0.0016,0.0013000000000000002,jarvis_3d,jarvis,high,mp-13473,3D
JVASP-17252,Cr1 O2,0.0041,0.0135,0.009399999999999999,jarvis_3d,jarvis,high,mvc-13105,3D
JVASP-17254,Cu2 Sn1 Se4,0.0035,0.0122,0.008700000000000001,jarvis_3d,jarvis,high,mvc-13133,3D
JVASP-17263,Ni2 Zn1 Tb2,0.0004,0.0017,0.0013,jarvis_3d,jarvis,high,mp-13535,3D
JVASP-17266,Si2 Sc2 Pt4,0.0024,0.0037,0.0013000000000000004,jarvis_3d,jarvis,high,mp-13572,3D
JVASP-17268,F6 Pd2,0.002,0.0133,0.0113,jarvis_3d,jarvis,high,mp-13679,3D
JVASP-17282,B2 Ni2,0.0139,0.0167,0.0028000000000000004,jarvis_3d,jarvis,high,mp-14019,3D
JVASP-17294,C4 Al4 Th1,0.0187,0.4938,0.4751,jarvis_3d,jarvis,high,mp-15123,3D
JVASP-17297,Hf6 Ni1 Sb2,0.0031,0.0177,0.0146,jarvis_3d,jarvis,high,mp-15297,3D
JVASP-17301,Sr4 Sb2,0.0016,0.0104,0.008799999999999999,jarvis_3d,jarvis,high,mp-15624,3D
JVASP-17314,Cr2 As4,0.0032,0.0035,0.0002999999999999999,jarvis_3d,jarvis,high,mp-15681,3D
JVASP-17319,As2 Sr4,0.0125,0.0304,0.0179,jarvis_3d,jarvis,high,mp-15697,3D
JVASP-17324,S2 K1 Yb1,0.0029,0.0037,0.0008000000000000004,jarvis_3d,jarvis,high,mp-15787,3D
JVASP-17326,Ti3 P1 O2,0.0044,0.0116,0.007199999999999999,jarvis_3d,jarvis,high,mp-15800,3D
JVASP-17329,B2 Cr4,0.0025,0.006,0.0035,jarvis_3d,jarvis,high,mp-15809,3D
JVASP-17344,Sr2 Cu2 S2 O2,0.0011,0.0073,0.0062,jarvis_3d,jarvis,high,mvc-14991,3D
JVASP-17352,Mn1 Al1 O3,0.0021,0.0024,0.0002999999999999999,jarvis_3d,jarvis,high,mvc-15603,3D
JVASP-17357,Mg1 Sb1 F6,4.4991,5.8147,1.3155999999999999,jarvis_3d,jarvis,high,mvc-15707,3D
JVASP-17362,Dy1 Rh3 C1,0.0161,0.0605,0.044399999999999995,jarvis_3d,jarvis,high,mp-15856,3D
JVASP-17365,Si2 Co2 Sm1,0.0066,0.0066,0.0,jarvis_3d,jarvis,high,mp-15968,3D
JVASP-17375,Ca2 Sb2 Au2,0.0454,0.0653,0.019899999999999994,jarvis_3d,jarvis,high,mp-16245,3D
JVASP-17385,Ca2 Zn2 Si2,0.0044,0.0394,0.034999999999999996,jarvis_3d,jarvis,high,mp-16266,3D
JVASP-17390,Zn1 Ni3 C1,0.0142,0.0251,0.0109,jarvis_3d,jarvis,high,mp-16290,3D
JVASP-17411,S2 Yb1 Tl1,0.0246,0.0322,0.007599999999999999,jarvis_3d,jarvis,high,mp-16472,3D
JVASP-17413,Ti2 Al2 Au2,0.0066,0.0219,0.0153,jarvis_3d,jarvis,high,mp-16481,3D
JVASP-17425,Al1 Ni4 U1,0.0016,0.0034,0.0017999999999999997,jarvis_3d,jarvis,high,mp-16519,3D
JVASP-17431,Cu2 Se4 Cd1 Sn1,0.2239,0.3131,0.0892,jarvis_3d,jarvis,high,mp-16565,3D
JVASP-17432,Cu2 Se4 Sn1 Hg1,0.0175,0.3172,0.29969999999999997,jarvis_3d,jarvis,high,mp-16566,3D
JVASP-17440,Y1 P1,0.016,0.0263,0.0103,jarvis_3d,jarvis,high,mp-16731,3D
JVASP-17443,Sm1 Ni1 As1,0.0484,0.0714,0.023000000000000007,jarvis_3d,jarvis,high,mp-16734,3D
JVASP-17457,O2 Mn3 Sb2 Ba2,0.0056,0.0077,0.0021000000000000003,jarvis_3d,jarvis,high,mp-18787,3D
JVASP-17468,Cr2 O4,0.0028,0.0159,0.0131,jarvis_3d,jarvis,high,mp-19177,3D
JVASP-17471,O2 Mn3 Sr2 Sb2,0.0037,0.0076,0.0039,jarvis_3d,jarvis,high,mp-19246,3D
JVASP-17482,In2 Au2 O4,0.3991,1.1618,0.7626999999999999,jarvis_3d,jarvis,high,mp-19723,3D
JVASP-17497,Sm3 Pb1 C1,0.0033,0.0568,0.053500000000000006,jarvis_3d,jarvis,high,mp-19758,3D
JVASP-17500,Pr3 In1,0.0016,0.0224,0.0208,jarvis_3d,jarvis,high,mp-19764,3D
JVASP-17511,Sm4 In2,0.0024,0.0051,0.0027000000000000006,jarvis_3d,jarvis,high,mp-19816,3D
JVASP-17512,Y3 In1 C1,0.0347,0.0579,0.0232,jarvis_3d,jarvis,high,mp-19817,3D
JVASP-17540,Ni2 Zr1 Sn1,0.0199,0.0601,0.0402,jarvis_3d,jarvis,high,mp-19877,3D
JVASP-17545,Dy3 Sn1 C1,0.0127,0.0653,0.052599999999999994,jarvis_3d,jarvis,high,mp-19899,3D
JVASP-17595,Mn4 Tb2,0.002,0.0088,0.0068000000000000005,jarvis_3d,jarvis,high,mp-20075,3D
JVASP-17613,Ti1 Co2 Ga1,0.0077,0.0297,0.022,jarvis_3d,jarvis,high,mp-20145,3D
JVASP-17615,Co2 Sn4,0.0021,0.0049,0.0028,jarvis_3d,jarvis,high,mp-20155,3D
JVASP-17618,Mn2 Co1 Ga1,0.0091,0.0454,0.0363,jarvis_3d,jarvis,high,mp-20160,3D
JVASP-17636,Na2 Mn2 P2,0.0017,0.0115,0.0098,jarvis_3d,jarvis,high,mp-20227,3D
JVASP-17644,Fe2 Ge2 Th1,0.0019,0.0109,0.009,jarvis_3d,jarvis,high,mp-20238,3D
JVASP-17649,Si2 Ir2 U1,0.0039,0.006,0.0021000000000000003,jarvis_3d,jarvis,high,mp-20260,3D
JVASP-17651,Ca1 In1,0.0123,0.0257,0.0134,jarvis_3d,jarvis,high,mp-20263,3D
JVASP-17659,Nb1 In1 Se2,0.0055,0.0112,0.0057,jarvis_3d,jarvis,high,mp-20279,3D
JVASP-17663,Sm1 In1,0.0019,0.0052,0.0033,jarvis_3d,jarvis,high,mp-20298,3D
JVASP-17670,B2 Mn4,0.0007,0.007,0.0063,jarvis_3d,jarvis,high,mp-20318,3D
JVASP-17671,In4 Te4,0.0458,0.1495,0.10369999999999999,jarvis_3d,jarvis,high,mp-20320,3D
JVASP-17673,Ti3 In1 C1,0.011,0.0168,0.0058,jarvis_3d,jarvis,high,mp-20325,3D
JVASP-17681,O2 Sb1 Ce2,0.0005,0.001,0.0005,jarvis_3d,jarvis,high,mp-20356,3D
JVASP-17687,Sm3 Ga1,0.0109,0.0144,0.0034999999999999996,jarvis_3d,jarvis,high,mp-20366,3D
JVASP-17702,Nd3 Sn1 C1,0.0365,0.066,0.029500000000000005,jarvis_3d,jarvis,high,mp-20423,3D
JVASP-17721,Mn1 Pd2 Sn1,0.006,0.0116,0.005599999999999999,jarvis_3d,jarvis,high,mp-20481,3D
JVASP-17729,Cu1 In1 Te4 Ta2,0.0038,0.0145,0.010700000000000001,jarvis_3d,jarvis,high,mp-20505,3D
JVASP-17733,Sc1 In1 Pt2,0.0031,0.0164,0.013300000000000001,jarvis_3d,jarvis,high,mp-20521,3D
JVASP-17742,Ho3 Mg3 In3,0.0112,0.0694,0.0582,jarvis_3d,jarvis,high,mp-20538,3D
JVASP-17744,Mn2 Ge2 Pr1,0.0049,0.0057,0.0008000000000000004,jarvis_3d,jarvis,high,mp-20542,3D
JVASP-17745,Pr3 Sn1 C1,0.0227,0.0704,0.047700000000000006,jarvis_3d,jarvis,high,mp-20543,3D
JVASP-17759,Dy3 Mg3 In3,0.0073,0.0346,0.027299999999999998,jarvis_3d,jarvis,high,mp-20573,3D
JVASP-17769,Si2 Ni2 U1,0.0,0.0036,0.0036,jarvis_3d,jarvis,high,mp-20596,3D
JVASP-17774,Tb4 In2,0.0037,0.0057,0.002,jarvis_3d,jarvis,high,mp-20608,3D
JVASP-17790,Mn4 Sb2,0.0074,0.0102,0.0028000000000000004,jarvis_3d,jarvis,high,mp-20664,3D
JVASP-17792,Rh2 In4 Sm2,0.001,0.0038,0.0028,jarvis_3d,jarvis,high,mp-20666,3D
JVASP-17807,Mg2 Pb1,0.0354,0.0596,0.0242,jarvis_3d,jarvis,high,mp-20724,3D
JVASP-17814,Ni2 Zr1 In1,0.0144,0.0358,0.0214,jarvis_3d,jarvis,high,mp-20744,3D
JVASP-17820,Ce2 Co2 C4,0.0006,0.0018,0.0012000000000000001,jarvis_3d,jarvis,high,mp-20753,3D
JVASP-17831,Nd2 Cu2 Sn2,0.0195,0.0417,0.0222,jarvis_3d,jarvis,high,mp-20774,3D
JVASP-17832,Co2 Ge2 U1,0.0003,0.0027,0.0024000000000000002,jarvis_3d,jarvis,high,mp-20776,3D
JVASP-17835,Fe4 B4,0.0004,0.0009,0.0005,jarvis_3d,jarvis,high,mp-20787,3D
JVASP-17841,N1 In1,0.3899,0.7786,0.38869999999999993,jarvis_3d,jarvis,high,mp-20812,3D
JVASP-17845,Pt3 Pb1,0.0322,0.15,0.11779999999999999,jarvis_3d,jarvis,high,mp-20828,3D
JVASP-17859,Al2 Sr1 Pb2,0.003,0.0055,0.0024999999999999996,jarvis_3d,jarvis,high,mp-20872,3D
JVASP-17861,Nd2 Ag2 Pb2,0.0074,0.0608,0.0534,jarvis_3d,jarvis,high,mp-20880,3D
JVASP-17868,Ni4 In1 Tm1,0.0153,0.0384,0.023099999999999996,jarvis_3d,jarvis,high,mp-20896,3D
JVASP-17881,Si2 Fe2 U1,0.0058,0.0086,0.0028000000000000004,jarvis_3d,jarvis,high,mp-20924,3D
JVASP-17884,U1 In3,0.0048,0.0058,0.001,jarvis_3d,jarvis,high,mp-20941,3D
JVASP-17886,Te1 Pb1,0.0104,0.03,0.0196,jarvis_3d,jarvis,high,mp-20943,3D
JVASP-17890,Tb3 Pb1 C1,0.0732,0.1189,0.045700000000000005,jarvis_3d,jarvis,high,mp-20963,3D
JVASP-17893,Na2 Mn2 Sb2,0.0069,0.0107,0.0037999999999999996,jarvis_3d,jarvis,high,mp-20970,3D
JVASP-17904,Y1 Sb1,0.1028,0.4153,0.3125,jarvis_3d,jarvis,high,mvc-16067,3D
JVASP-17906,Zn1 Cu2 Ge1 Se4,0.0346,0.4195,0.38489999999999996,jarvis_3d,jarvis,high,mvc-16079,3D
JVASP-17912,V4 In2 C2,0.0024,0.0032,0.0008000000000000004,jarvis_3d,jarvis,high,mp-20983,3D
JVASP-17926,Pd2 Sn1 Dy1,0.0257,0.0378,0.0121,jarvis_3d,jarvis,high,mp-21014,3D
JVASP-17941,Pb1 S1,0.0824,0.2111,0.1287,jarvis_3d,jarvis,high,mp-21039,3D
JVASP-17943,Ge2 Ir2 U1,0.0013,0.0026,0.0013,jarvis_3d,jarvis,high,mp-21046,3D
JVASP-17957,C1 Hf1,0.0326,0.1481,0.11550000000000002,jarvis_3d,jarvis,high,mp-21075,3D
JVASP-17967,Sr2 Pb2,0.0019,0.0053,0.0034000000000000002,jarvis_3d,jarvis,high,mp-21093,3D
JVASP-17996,Nd2 Ge2 Ru2,0.0061,0.0075,0.0013999999999999993,jarvis_3d,jarvis,high,mp-21194,3D
JVASP-17998,Dy2 Ag2 Sn2,0.0239,0.1149,0.091,jarvis_3d,jarvis,high,mp-21198,3D
JVASP-18006,Fe1 Co2 In1,0.0025,0.0071,0.0046,jarvis_3d,jarvis,high,mp-21211,3D
JVASP-18007,Pb1 Se1,0.0259,0.0729,0.04700000000000001,jarvis_3d,jarvis,high,mp-21214,3D
JVASP-18010,Ni2 In4 Yb2,0.0015,0.0024,0.0008999999999999998,jarvis_3d,jarvis,high,mp-21223,3D
JVASP-18015,Ti3 In1 N1,0.0253,0.0296,0.004300000000000002,jarvis_3d,jarvis,high,mp-21233,3D
JVASP-18035,Tm3 In1 C1,0.0141,0.0165,0.002400000000000001,jarvis_3d,jarvis,high,mp-21292,3D
JVASP-18071,Tb3 In1 C1,0.0075,0.0249,0.0174,jarvis_3d,jarvis,high,mp-21392,3D
JVASP-18074,Ho1 In5 Co1,0.0039,0.0059,0.002,jarvis_3d,jarvis,high,mp-21398,3D
JVASP-18076,Ga3 Pt2,0.0065,0.0158,0.009300000000000003,jarvis_3d,jarvis,high,mp-21400,3D
JVASP-18090,Si2 Co2 U1,0.0006,0.0036,0.003,jarvis_3d,jarvis,high,mp-21429,3D
JVASP-18104,V1 Co2 Sn1,0.0062,0.0089,0.0027,jarvis_3d,jarvis,high,mp-21469,3D
JVASP-18127,Fe3 Sn1 C1,0.0144,0.0445,0.0301,jarvis_3d,jarvis,high,mp-21850,3D
JVASP-18133,V1 Fe2 Ga1,0.0116,0.0547,0.0431,jarvis_3d,jarvis,high,mp-21883,3D
JVASP-18136,Nd2 Co2 Si2,0.0032,0.0073,0.0040999999999999995,jarvis_3d,jarvis,high,mp-21890,3D
JVASP-18152,Ga2 Pt1,0.0059,0.0188,0.012900000000000002,jarvis_3d,jarvis,high,mp-22095,3D
JVASP-18155,Y1 Rh3 C1,0.0127,0.0349,0.0222,jarvis_3d,jarvis,high,mp-22120,3D
JVASP-18161,Dy2 Ge2 Au2,0.0264,0.0332,0.0068000000000000005,jarvis_3d,jarvis,high,mp-22149,3D
JVASP-18188,Mn2 Co1 In1,0.0052,0.0407,0.035500000000000004,jarvis_3d,jarvis,high,mp-22276,3D
JVASP-18208,Ag2 In1 Tb1,0.0447,0.0452,0.0005000000000000004,jarvis_3d,jarvis,high,mp-22382,3D
JVASP-18218,Fe3 Sn1,0.0019,0.0026,0.0006999999999999999,jarvis_3d,jarvis,high,mp-22461,3D
JVASP-18219,Ti1 Ni2 In1,0.0372,0.0469,0.0097,jarvis_3d,jarvis,high,mp-22463,3D
JVASP-18220,Mn2 Co1 Sn1,0.0051,0.0073,0.0021999999999999997,jarvis_3d,jarvis,high,mp-22465,3D
JVASP-18232,Co2 Zr1 Sn1,0.0079,0.0105,0.0026,jarvis_3d,jarvis,high,mp-22503,3D
JVASP-18238,Er3 Sn1 C1,0.0312,0.0627,0.03150000000000001,jarvis_3d,jarvis,high,mp-22537,3D
JVASP-18243,Ti2 Si2,0.0007,0.0018,0.0010999999999999998,jarvis_3d,jarvis,high,mp-22558,3D
JVASP-18255,Fe2 Cu1 Se4 In1,0.0074,0.0389,0.0315,jarvis_3d,jarvis,high,mp-22611,3D
JVASP-18256,Fe1 Cu2 Se4 Sn1,0.0024,0.0046,0.0022,jarvis_3d,jarvis,high,mp-22612,3D
JVASP-18258,Co4 N2,0.0028,0.0128,0.01,jarvis_3d,jarvis,high,mp-22631,3D
JVASP-18267,Mn2 Sn2 Ba1,0.0227,0.0279,0.0052,jarvis_3d,jarvis,high,mp-22679,3D
JVASP-18277,Y1 In1,0.0114,0.0126,0.0011999999999999997,jarvis_3d,jarvis,high,mp-22704,3D
JVASP-18287,Mn1 Ni2 In1,0.0185,0.0389,0.020399999999999998,jarvis_3d,jarvis,high,mp-22731,3D
JVASP-18299,Ti1 Ni1 Sn1,0.0355,0.0815,0.046000000000000006,jarvis_3d,jarvis,high,mp-22782,3D
JVASP-18302,V1 Co2 Ga1,0.0248,0.0291,0.004300000000000002,jarvis_3d,jarvis,high,mp-22790,3D
JVASP-18311,Sm1 Bi1,0.0174,0.0264,0.009000000000000001,jarvis_3d,jarvis,high,mp-22873,3D
JVASP-18313,Bi1 U1,0.0052,0.0221,0.016900000000000002,jarvis_3d,jarvis,high,mp-22886,3D
JVASP-18316,Dy1 Bi1,0.0198,0.0366,0.0168,jarvis_3d,jarvis,high,mp-22907,3D
JVASP-18318,Ag1 I1,0.0976,1.659,1.5614000000000001,jarvis_3d,jarvis,high,mp-22915,3D
JVASP-18320,Tb1 Bi1,0.166,0.1876,0.02159999999999998,jarvis_3d,jarvis,high,mp-22921,3D
JVASP-18323,La1 Bi1,0.043,0.2028,0.1598,jarvis_3d,jarvis,high,mp-22926,3D
JVASP-18326,Yb2 Cu2 Bi2,0.0483,0.0545,0.006199999999999997,jarvis_3d,jarvis,high,mp-22953,3D
JVASP-18327,Yb2 Cu2 Bi2,0.041,0.082,0.041,jarvis_3d,jarvis,high,mp-22960,3D
JVASP-18328,Na2 Mn2 Bi2,0.0039,0.0297,0.0258,jarvis_3d,jarvis,high,mp-22973,3D
JVASP-18332,U2 N2 Cl2,0.0019,0.0068,0.0049,jarvis_3d,jarvis,high,mp-23019,3D
JVASP-18333,Er6 Mn1 Bi2,0.01,0.0101,9.99999999999994e-05,jarvis_3d,jarvis,high,mp-23039,3D
JVASP-18334,Ho6 Mn1 Bi2,0.0085,0.0086,9.99999999999994e-05,jarvis_3d,jarvis,high,mp-23047,3D
JVASP-18342,Pr1 Bi1,0.1974,0.2529,0.05550000000000002,jarvis_3d,jarvis,high,mp-23171,3D
JVASP-18361,Nd1 Bi1,0.2048,0.2484,0.0436,jarvis_3d,jarvis,high,mp-23300,3D
JVASP-18362,Rb3 Bi1,0.7055,0.8733,0.16779999999999995,jarvis_3d,jarvis,high,mp-23304,3D
JVASP-18366,Cl6 K2 Ru1,1.817,2.0598,0.24280000000000013,jarvis_3d,jarvis,high,mp-23471,3D
JVASP-18373,H1 Br1,0.0262,0.1199,0.0937,jarvis_3d,jarvis,high,mp-23903,3D
JVASP-18378,H1 Ta2,0.0035,0.0058,0.0022999999999999995,jarvis_3d,jarvis,high,mp-24082,3D
JVASP-18380,H2 Pr1,0.0167,0.1504,0.1337,jarvis_3d,jarvis,high,mp-24095,3D
JVASP-18386,H2 Ho1,0.0198,0.0336,0.013799999999999996,jarvis_3d,jarvis,high,mp-24152,3D
JVASP-18388,H2 Nb1,0.0092,0.0145,0.005300000000000001,jarvis_3d,jarvis,high,mp-24154,3D
JVASP-18394,H2 Sc1,0.0411,0.0981,0.05700000000000001,jarvis_3d,jarvis,high,mp-24237,3D
JVASP-18397,H1 Cr1,0.0092,0.019,0.0098,jarvis_3d,jarvis,high,mp-24287,3D
JVASP-18399,H1 Pd1,0.0469,0.0697,0.0228,jarvis_3d,jarvis,high,mp-24289,3D