material_id,formula,pbe_bandgap,hse_bandgap,bandgap_correction,dataset,data_source,confidence,mpid,dimensionality
JVASP-26740,Sn4 P2 Cl2 O8,2.9111,4.0819,1.1708000000000003,jarvis_3d,jarvis,high,mp-555836,3D
JVASP-26741,K8 P4 O16,3.2987,4.1566,0.8578999999999999,jarvis_3d,jarvis,high,mp-555840,3D
JVASP-26742,Lu2 S2 F2,2.4467,3.6065,1.1598000000000002,jarvis_3d,jarvis,high,mp-555850,3D
JVASP-26743,Na2 Cd3 P4 O14,3.3219,5.724,2.4021000000000003,jarvis_3d,jarvis,high,mp-555851,3D
JVASP-26744,Rb4 Ag4 Ge2 S8,1.878,2.6719,0.7939,jarvis_3d,jarvis,high,mp-555852,3D
JVASP-26746,P4 Pt1 F12,4.9462,6.0222,1.0759999999999996,jarvis_3d,jarvis,high,mp-555863,3D
JVASP-26749,Li2 As2 S4,0.9263,1.5192,0.5929000000000001,jarvis_3d,jarvis,high,mp-555874,3D
JVASP-26752,Pr6 Cu2 Si2 S14,1.6748,2.1504,0.4755999999999998,jarvis_3d,jarvis,high,mp-555893,3D
JVASP-26754,Nb2 Tl5 S4 Cl9,1.4792,1.931,0.4518,jarvis_3d,jarvis,high,mp-555900,3D
JVASP-26756,Al2 I6 O18,3.3087,4.451,1.1422999999999996,jarvis_3d,jarvis,high,mp-555903,3D
JVASP-26762,Na4 P4 Pb2 O14,4.4891,6.222,1.7329000000000008,jarvis_3d,jarvis,high,mp-555933,3D
JVASP-26764,Rb1 Na7 Co2 O6,0.0006,0.011,0.0104,jarvis_3d,jarvis,high,mp-555936,3D
JVASP-26765,Dy4 Te10 O26,3.0444,4.5187,1.4743,jarvis_3d,jarvis,high,mp-555940,3D
JVASP-26767,Ba4 Sn4 Hg4 S16,1.8041,2.9185,1.1143999999999998,jarvis_3d,jarvis,high,mp-555954,3D
JVASP-26770,Na1 Tl2 Mo1 F6,0.5671,1.5595,0.9924000000000001,jarvis_3d,jarvis,high,mp-555970,3D
JVASP-26773,Sm6 Cu2 Ge2 S14,1.7803,2.3767,0.5964,jarvis_3d,jarvis,high,mp-555978,3D
JVASP-26802,Ag2 Bi2 S2 Cl4,1.0928,1.5727,0.4799,jarvis_3d,jarvis,high,mp-556094,3D
JVASP-26807,Dy2 Ti2 Cl2 O6,3.176,3.6356,0.4596,jarvis_3d,jarvis,high,mp-556108,3D
JVASP-26811,Na8 B4 H4 O12,4.1592,7.149,2.9898,jarvis_3d,jarvis,high,mp-556125,3D
JVASP-26813,F11 Na1 Fe1 Zr2,0.08,1.578,1.498,jarvis_3d,jarvis,high,mp-556134,3D
JVASP-26814,Ba1 Zr1 P2 O8,4.4295,4.8681,0.4386000000000001,jarvis_3d,jarvis,high,mp-556139,3D
JVASP-26822,Rb2 Na2 Ti2 O6,3.4739,3.9303,0.4563999999999999,jarvis_3d,jarvis,high,mp-556185,3D
JVASP-26825,Mg3 Nb6 O11,0.043,0.8804,0.8373999999999999,jarvis_3d,jarvis,high,mp-505365,3D
JVASP-26828,As4 Se4 I4,1.2024,1.7743,0.5719000000000001,jarvis_3d,jarvis,high,mp-505373,3D
JVASP-26829,Na1 Li3 N4 H8,2.8274,3.0488,0.22140000000000004,jarvis_3d,jarvis,high,mp-505381,3D
JVASP-26871,In2 P2 H4 O10,3.6668,5.5935,1.9266999999999999,jarvis_3d,jarvis,high,mp-505551,3D
JVASP-26937,Sn1 K2 O6 H6,3.8715,5.7387,1.8671999999999995,jarvis_3d,jarvis,high,mp-510002,3D
JVASP-26948,Au5 Rb7 O2,0.2179,1.3544,1.1365,jarvis_3d,jarvis,high,mp-510076,3D
JVASP-26997,Ti4 Si4 Ni4,0.0108,0.067,0.0562,jarvis_3d,jarvis,high,mp-510409,3D
JVASP-27004,Zr1 Mo2 O8,3.1713,3.7728,0.6015000000000001,jarvis_3d,jarvis,high,mp-510456,3D
JVASP-27055,V2 Bi2 Pb2 O10,2.6118,2.8849,0.2730999999999999,jarvis_3d,jarvis,high,mp-510666,3D
JVASP-27195,Os2 O8,3.153,3.5597,0.40669999999999984,jarvis_3d,jarvis,high,mp-540783,3D
JVASP-27264,Ti2 I8,0.8845,0.9484,0.06390000000000007,jarvis_3d,jarvis,high,mp-541013,3D
JVASP-30879,Ti4 Ga6,0.0095,0.0381,0.0286,jarvis_3d,jarvis,high,mp-30673,3D
JVASP-30883,Ga6 Zr4,0.0179,0.0191,0.0011999999999999997,jarvis_3d,jarvis,high,mp-30686,3D
JVASP-30990,K4 Al4 H16,5.0563,6.8464,1.7900999999999998,jarvis_3d,jarvis,high,mp-31097,3D
JVASP-31146,Cl1 H3 O1,5.4075,7.7712,2.3637000000000006,jarvis_3d,jarvis,high,mp-34078,3D
JVASP-31151,F7 Hf1 Na3,6.4176,9.2634,2.8458000000000006,jarvis_3d,jarvis,high,mp-34579,3D
JVASP-31153,Al2 B28 Na2,1.8891,2.0939,0.2048000000000001,jarvis_3d,jarvis,high,mp-34763,3D
JVASP-31154,B2 H12 N2,6.179,9.0888,2.9098000000000006,jarvis_3d,jarvis,high,mp-35082,3D
JVASP-31155,F6 Hg1 Pb1,1.2697,3.0895,1.8198,jarvis_3d,jarvis,high,mp-35659,3D
JVASP-31158,In2 Mg1 Te4,0.1745,1.3791,1.2046000000000001,jarvis_3d,jarvis,high,mp-35777,3D
JVASP-31163,Tm1 Cu1 Se2,1.2744,1.612,0.3376000000000001,jarvis_3d,jarvis,high,mp-36209,3D
JVASP-31166,P2 S6 Sn1,1.0384,1.8613,0.8229,jarvis_3d,jarvis,high,mp-36381,3D
JVASP-31167,F6 Hg1 Sn1,2.4147,5.0138,2.5991,jarvis_3d,jarvis,high,mp-36508,3D
JVASP-31176,Cd1 F6 Pb1,2.2909,4.0793,1.7883999999999998,jarvis_3d,jarvis,high,mp-37216,3D
JVASP-31179,Na2 H1 F4,6.252,8.2341,1.9821,jarvis_3d,jarvis,high,mp-37458,3D
JVASP-31183,K2 B2 H8,6.0797,8.5222,2.4425,jarvis_3d,jarvis,high,mp-37722,3D
JVASP-31191,Pr4 S8 Sr2,2.1232,2.8165,0.6932999999999998,jarvis_3d,jarvis,high,mp-38240,3D
JVASP-31195,Li7 Bi1 O6,1.8957,2.6766,0.7809000000000001,jarvis_3d,jarvis,high,mp-38487,3D
JVASP-31202,Na2 B2 H8,6.4335,8.4938,2.0603,jarvis_3d,jarvis,high,mp-38725,3D
JVASP-31206,Ga4 Mg2 O8,2.7112,4.5385,1.8273000000000001,jarvis_3d,jarvis,high,mp-38951,3D
JVASP-31243,F5 K2 Na1 O1 Ti1,3.9243,4.2893,0.36499999999999977,jarvis_3d,jarvis,high,mp-42190,3D
JVASP-31310,Er2 H2 O4,4.2271,6.2967,2.0696000000000003,jarvis_3d,jarvis,high,mp-504801,3D
JVASP-31334,Mg1 Se1 O9 H12,5.1232,6.8765,1.7533000000000003,jarvis_3d,jarvis,high,mp-504894,3D
JVASP-4666,Ga4 Te4,0.2169,1.0468,0.8299,jarvis_3d,jarvis,high,mp-10009,3D
JVASP-4696,Sr1 Li1 P1,0.8989,1.7285,0.8295999999999999,jarvis_3d,jarvis,high,mp-10614,3D
JVASP-4699,Ta1 S1,0.0101,0.0354,0.025300000000000003,jarvis_3d,jarvis,high,mp-10628,3D
JVASP-4702,Tm2 Te2,0.0053,0.0077,0.0024000000000000002,jarvis_3d,jarvis,high,mp-10656,3D
JVASP-4705,Au2 Se2,0.001,0.0094,0.008400000000000001,jarvis_3d,jarvis,high,mp-10678,3D
JVASP-4714,Yb2 Na2 P4 S12,1.5719,2.0552,0.48330000000000006,jarvis_3d,jarvis,high,mp-10838,3D
JVASP-4720,Pr1 Al2 Ni3,0.0021,0.0059,0.0038,jarvis_3d,jarvis,high,mp-10897,3D
JVASP-4325,Lu1 Si2,0.0064,0.0172,0.0108,jarvis_3d,jarvis,high,mp-1103,3D
JVASP-128,Pt1 Se2,0.011,0.0612,0.050199999999999995,jarvis_3d,jarvis,high,mp-1115,3D
JVASP-4331,Na6 As2,0.6515,1.2885,0.637,jarvis_3d,jarvis,high,mp-1136,3D
JVASP-32,O6 Al4,6.4303,7.5712,1.1409000000000002,jarvis_3d,jarvis,high,mp-1143,3D
JVASP-4741,Lu1 Pb2,0.0009,0.0043,0.0034000000000000002,jarvis_3d,jarvis,high,mp-11493,3D
JVASP-4744,Tl2 Ni2,0.0162,0.0237,0.0075,jarvis_3d,jarvis,high,mp-11524,3D
JVASP-131,Sn1 S2,1.2185,2.0634,0.8449000000000002,jarvis_3d,jarvis,high,mp-1170,3D
JVASP-107,Si4 C4,2.4947,3.2315,0.7368000000000001,jarvis_3d,jarvis,high,mp-11714,3D
JVASP-4750,Ge4 Pr2,0.0016,0.0045,0.0029,jarvis_3d,jarvis,high,mp-11722,3D
JVASP-82,Zr1 S2,0.9108,1.1723,0.26149999999999984,jarvis_3d,jarvis,high,mp-1186,3D
JVASP-96,Zn1 Se1,1.2241,2.6296,1.4055,jarvis_3d,jarvis,high,mp-1190,3D
JVASP-4771,Ag1 B2,0.0042,0.0053,0.0011000000000000003,jarvis_3d,jarvis,high,mp-12062,3D
JVASP-311,Ti2 O1,0.0056,0.0057,0.00010000000000000026,jarvis_3d,jarvis,high,mp-1215,3D
JVASP-116,O1 Mg1,5.1301,6.8046,1.6745,jarvis_3d,jarvis,high,mp-1265,3D
JVASP-4804,Na1 Mn1 Te2,0.0034,0.0044,0.0010000000000000005,jarvis_3d,jarvis,high,mp-12682,3D
JVASP-4819,Si4 Dy2,0.0018,0.0032,0.0014000000000000002,jarvis_3d,jarvis,high,mp-12770,3D
JVASP-207,S2 Ge2,0.8253,1.4582,0.6328999999999999,jarvis_3d,jarvis,high,mp-12910,3D
JVASP-4825,F6 Na2 Mg2,7.1518,10.9173,3.7654999999999994,jarvis_3d,jarvis,high,mp-12948,3D
JVASP-4831,Sr4 Si2,0.0063,0.0635,0.0572,jarvis_3d,jarvis,high,mp-13051,3D
JVASP-4840,Ca3 N2,1.9825,3.1164,1.1339000000000001,jarvis_3d,jarvis,high,mp-13146,3D
JVASP-4843,B1 N1,4.3662,5.8849,1.5187,jarvis_3d,jarvis,high,mp-13150,3D
JVASP-4849,Al2 N2,3.6884,4.4288,0.7403999999999997,jarvis_3d,jarvis,high,mp-13178,3D
JVASP-15,Zr2 Te2,0.0362,0.148,0.11179999999999998,jarvis_3d,jarvis,high,mp-1319,3D
JVASP-4852,Sc2 Ag2 P4 Se12,1.4806,1.6889,0.20830000000000015,jarvis_3d,jarvis,high,mp-13383,3D
JVASP-4855,Er2 Ag2 P4 Se12,1.651,2.0043,0.35330000000000017,jarvis_3d,jarvis,high,mp-13384,3D
JVASP-4858,Tm2 Ag2 P4 Se12,1.6672,2.0086,0.3413999999999999,jarvis_3d,jarvis,high,mp-13385,3D
JVASP-155,Pd4 S8,0.0157,0.0251,0.009400000000000002,jarvis_3d,jarvis,high,mp-13682,3D
JVASP-4343,N12 S10,2.014,2.1285,0.11450000000000005,jarvis_3d,jarvis,high,mp-1419,3D
JVASP-51,S2 Mo1,0.9551,1.2929,0.3378,jarvis_3d,jarvis,high,mp-1434,3D
JVASP-4346,P16 S12,2.3305,2.8966,0.5661,jarvis_3d,jarvis,high,mp-1469,3D
JVASP-4349,Te2 Hg2,0.0032,0.0083,0.0051,jarvis_3d,jarvis,high,mp-1507,3D
JVASP-4358,Ga4 Se4,0.5013,2.071,1.5697,jarvis_3d,jarvis,high,mp-1572,3D
JVASP-4361,As8 O12,3.4063,5.2894,1.8830999999999998,jarvis_3d,jarvis,high,mp-1581,3D
JVASP-137,Si2 S4,2.7267,3.5611,0.8344,jarvis_3d,jarvis,high,mp-1602,3D
JVASP-57,Mo2 Se4,0.9063,1.3226,0.4163,jarvis_3d,jarvis,high,mp-1634,3D
JVASP-4370,Pr1 Sb1,0.003,0.0127,0.0097,jarvis_3d,jarvis,high,mp-1644,3D
JVASP-4879,Mg1 Al2 S4,2.2058,3.1305,0.9247000000000001,jarvis_3d,jarvis,high,mp-16755,3D
JVASP-362,Zr2 Se6,0.0238,0.7417,0.7179,jarvis_3d,jarvis,high,mp-1683,3D
JVASP-4885,Rb8 S20,1.6794,2.6989,1.0195,jarvis_3d,jarvis,high,mp-16911,3D
JVASP-4891,K8 S20,1.6409,2.6302,0.9892999999999998,jarvis_3d,jarvis,high,mp-17146,3D
JVASP-4373,U1 Hg2,0.0007,0.0008,0.00010000000000000005,jarvis_3d,jarvis,high,mp-1754,3D
JVASP-4376,Mn2 Ni2,0.0032,0.0054,0.0022,jarvis_3d,jarvis,high,mp-1797,3D
JVASP-75,W2 Se4,1.046,1.4356,0.38959999999999995,jarvis_3d,jarvis,high,mp-1821,3D
JVASP-4216,Si6 As6,0.9804,1.6235,0.6430999999999999,jarvis_3d,jarvis,high,mp-1863,3D
JVASP-4918,O4 K3 V1,3.6166,4.1136,0.4969999999999999,jarvis_3d,jarvis,high,mp-19052,3D
JVASP-4921,O6 Ti2 Fe2,0.0014,0.0019,0.0005,jarvis_3d,jarvis,high,mp-19074,3D
JVASP-4924,Co2 O2,0.0013,0.0015,0.0002000000000000001,jarvis_3d,jarvis,high,mp-19079,3D
JVASP-335,Ti1 Te2,0.0013,0.0061,0.0048000000000000004,jarvis_3d,jarvis,high,mp-1907,3D
JVASP-4930,O2 Ni1 Ag2,0.0009,0.0018,0.0009,jarvis_3d,jarvis,high,mp-19405,3D
JVASP-81,Ga4 Se4,0.7249,2.1372,1.4123,jarvis_3d,jarvis,high,mp-1943,3D
JVASP-344,W2 O6,0.4901,1.5743,1.0842,jarvis_3d,jarvis,high,mp-19443,3D
JVASP-597,Te18 Ta9,0.0011,0.0096,0.008499999999999999,jarvis_3d,jarvis,high,mp-1967,3D
JVASP-4948,In1 Sb1,0.0001,0.0004,0.00030000000000000003,jarvis_3d,jarvis,high,mp-19744,3D
JVASP-4954,Rh1 O2 F6,0.0263,0.6851,0.6588,jarvis_3d,jarvis,high,mp-19790,3D
JVASP-4957,Ti1 Pb1 O3,1.6702,1.6989,0.02870000000000017,jarvis_3d,jarvis,high,mp-19845,3D
JVASP-594,Ta2 S4,0.0162,0.0302,0.014000000000000002,jarvis_3d,jarvis,high,mp-1984,3D
JVASP-252,Pb2 O2,1.4719,2.3864,0.9145000000000001,jarvis_3d,jarvis,high,mp-19921,3D
JVASP-4993,O4 Ag4 Pb2,1.4752,2.2509,0.7757000000000001,jarvis_3d,jarvis,high,mp-20210,3D
JVASP-266,P1 In1,0.8864,1.3874,0.501,jarvis_3d,jarvis,high,mp-20351,3D
JVASP-365,Zr1 Se2,0.0961,0.5196,0.42349999999999993,jarvis_3d,jarvis,high,mp-2076,3D
JVASP-5053,In2 Ag2 P4 Se12,0.2843,1.3764,1.0921,jarvis_3d,jarvis,high,mp-20902,3D
JVASP-281,Sn2 O2,0.5316,1.0596,0.5280000000000001,jarvis_3d,jarvis,high,mp-2097,3D
JVASP-5071,In4 Te8 Ba2,0.9044,1.4651,0.5607000000000001,jarvis_3d,jarvis,high,mp-21183,3D
JVASP-5074,Rh3 F9,0.0298,0.4232,0.3934,jarvis_3d,jarvis,high,mp-21208,3D
JVASP-5083,Fe2 Te2,0.0066,0.0084,0.0017999999999999995,jarvis_3d,jarvis,high,mp-21273,3D
JVASP-254,S1 Pb1,0.2204,1.2978,1.0774000000000001,jarvis_3d,jarvis,high,mp-21276,3D
JVASP-5098,Pt2 Pb2,0.0082,0.0113,0.0030999999999999986,jarvis_3d,jarvis,high,mp-21380,3D
JVASP-5101,Zn2 In4 S8,0.4646,0.7486,0.28400000000000003,jarvis_3d,jarvis,high,mp-21409,3D
JVASP-317,Ti1 S2,0.0152,0.0346,0.0194,jarvis_3d,jarvis,high,mp-2156,3D
JVASP-296,Se2 Sn2,0.0178,0.9246,0.9067999999999999,jarvis_3d,jarvis,high,mp-2168,3D
JVASP-21,Se1 Pb1,0.4391,0.9619,0.5227999999999999,jarvis_3d,jarvis,high,mp-2201,3D
JVASP-69,Nb2 Se4,0.012,0.0282,0.0162,jarvis_3d,jarvis,high,mp-2207,3D
JVASP-4388,C2 S4,2.8719,3.2103,0.33840000000000003,jarvis_3d,jarvis,high,mp-2232,3D
JVASP-4391,Te2 O4,0.1812,0.5987,0.4175,jarvis_3d,jarvis,high,mp-2237,3D
JVASP-72,W2 S4,0.7182,1.514,0.7958000000000001,jarvis_3d,jarvis,high,mp-224,3D
JVASP-5146,In2 Ag2 P4 S12,0.9792,1.9441,0.9649,jarvis_3d,jarvis,high,mp-22661,3D
JVASP-78,Te8 W4,0.0013,0.0304,0.0291,jarvis_3d,jarvis,high,mp-22693,3D
JVASP-5155,U4 Ni4 Sn2,0.0024,0.0035,0.0011000000000000003,jarvis_3d,jarvis,high,mp-22813,3D
JVASP-4180,Hg4 Cl8,2.6588,4.4379,1.7791000000000001,jarvis_3d,jarvis,high,mp-22855,3D
JVASP-5161,Ni2 Bi2,0.0012,0.0074,0.006200000000000001,jarvis_3d,jarvis,high,mp-22861,3D
JVASP-5164,Cu2 I2,1.5711,3.095,1.5239000000000003,jarvis_3d,jarvis,high,mp-22863,3D
JVASP-5170,Mn2 Bi2,0.0072,0.0087,0.0014999999999999996,jarvis_3d,jarvis,high,mp-22878,3D
JVASP-161,I2 Pb1,2.2723,3.1383,0.8660000000000001,jarvis_3d,jarvis,high,mp-22883,3D
JVASP-5173,Pb1 I2,2.2419,3.1329,0.891,jarvis_3d,jarvis,high,mp-22893,3D
JVASP-601,Te2 Rh1,0.0023,0.0026,0.0002999999999999999,jarvis_3d,jarvis,high,mp-228,3D
JVASP-5176,Cu2 Br2,1.0124,1.8765,0.8641000000000001,jarvis_3d,jarvis,high,mp-22917,3D
JVASP-5185,C2 F4 Cl4,5.7209,6.88,1.1590999999999996,jarvis_3d,jarvis,high,mp-22966,3D
JVASP-5188,Pb2 I2 F2,2.0126,3.0163,1.0037000000000003,jarvis_3d,jarvis,high,mp-22969,3D
JVASP-5191,Sb4 S4 Br4,1.7445,2.4137,0.6692,jarvis_3d,jarvis,high,mp-22971,3D
JVASP-5194,Sb4 Se4 I4,1.3683,1.9804,0.6120999999999999,jarvis_3d,jarvis,high,mp-22996,3D
JVASP-5197,Sb4 S4 I4,0.7657,1.2201,0.4543999999999999,jarvis_3d,jarvis,high,mp-23007,3D
JVASP-5200,Bi4 Se4 I4,1.5122,2.2243,0.7121,jarvis_3d,jarvis,high,mp-23020,3D
JVASP-5203,Sb4 S4 I4,1.6009,2.1257,0.5248000000000002,jarvis_3d,jarvis,high,mp-23041,3D
JVASP-5212,C4 S8 N4 Cl4 O8,2.5798,3.1031,0.5232999999999999,jarvis_3d,jarvis,high,mp-23150,3D
JVASP-5215,Bi8 Se12,0.9855,1.3894,0.4038999999999999,jarvis_3d,jarvis,high,mp-23164,3D
JVASP-5218,Sb2 Cl10,1.261,2.6759,1.4149,jarvis_3d,jarvis,high,mp-23176,3D
JVASP-164,B2 Cl6,4.5313,6.1165,1.5852000000000004,jarvis_3d,jarvis,high,mp-23184,3D
JVASP-5224,Hg2 I4,0.9695,2.045,1.0755,jarvis_3d,jarvis,high,mp-23192,3D
JVASP-167,Mg1 I2,3.6244,4.821,1.1965999999999997,jarvis_3d,jarvis,high,mp-23205,3D
JVASP-170,Mg1 Cl2,5.641,7.7203,2.0793,jarvis_3d,jarvis,high,mp-23210,3D
JVASP-5230,Sn4 Br16,2.2176,3.5328,1.3152,jarvis_3d,jarvis,high,mp-23216,3D
JVASP-173,B2 Br6,3.6365,4.872,1.2355,jarvis_3d,jarvis,high,mp-23225,3D
JVASP-5239,U3 Cl18,1.4473,1.5508,0.10349999999999993,jarvis_3d,jarvis,high,mp-23250,3D
JVASP-4183,Be2 Cl4,6.4796,8.395,1.9154,jarvis_3d,jarvis,high,mp-23267,3D
JVASP-4273,As4 Cl12,3.6938,5.3869,1.6930999999999998,jarvis_3d,jarvis,high,mp-23280,3D
JVASP-176,Sb2 I6,2.0615,2.393,0.3314999999999997,jarvis_3d,jarvis,high,mp-23281,3D
JVASP-4264,Al4 Br12,3.9745,5.2853,1.3108000000000004,jarvis_3d,jarvis,high,mp-23288,3D
JVASP-4234,Ru4 Br12,0.0139,0.0204,0.006500000000000002,jarvis_3d,jarvis,high,mp-23294,3D
JVASP-4255,As4 Br12,2.8552,4.0247,1.1695000000000002,jarvis_3d,jarvis,high,mp-23317,3D
JVASP-5254,Bi4 S4 Br4,1.9677,2.6672,0.6994999999999998,jarvis_3d,jarvis,high,mp-23324,3D
JVASP-4394,Al4 Pr1,0.0016,0.0047,0.0031000000000000003,jarvis_3d,jarvis,high,mp-2336,3D
JVASP-5257,Ga2 Se2 Br14,1.9928,2.9742,0.9814000000000003,jarvis_3d,jarvis,high,mp-23376,3D
JVASP-5260,Bi4 Te2 I2,0.0122,0.0532,0.040999999999999995,jarvis_3d,jarvis,high,mp-23435,3D
JVASP-5266,Sr4 In2 I10,2.8274,3.457,0.6295999999999999,jarvis_3d,jarvis,high,mp-23504,3D
JVASP-5269,Bi4 S4 I4,1.7666,2.4072,0.6406000000000001,jarvis_3d,jarvis,high,mp-23514,3D
JVASP-5275,H6 Al1 K3,2.1119,4.5125,2.4006000000000003,jarvis_3d,jarvis,high,mp-23697,3D
JVASP-5278,K2 H2 C2 O6,5.3822,7.4466,2.0644,jarvis_3d,jarvis,high,mp-23724,3D
JVASP-5281,Si4 H16,6.1443,7.7896,1.6452999999999998,jarvis_3d,jarvis,high,mp-23739,3D
JVASP-5284,Sr2 H4,1.6785,2.9741,1.2955999999999999,jarvis_3d,jarvis,high,mp-23759,3D
JVASP-5293,Mn2 H2,0.0013,0.0014,0.00010000000000000005,jarvis_3d,jarvis,high,mp-24416,3D
JVASP-5296,Ca2 H4,1.0549,2.4801,1.4252000000000002,jarvis_3d,jarvis,high,mp-24809,3D
JVASP-5299,K4 B4 H16,1.3002,2.5009,1.2007,jarvis_3d,jarvis,high,mp-24814,3D
JVASP-143,Ga4 S4,1.4998,2.45,0.9502000000000002,jarvis_3d,jarvis,high,mp-2507,3D
JVASP-308,O2 Ti1,2.3537,2.6662,0.3125,jarvis_3d,jarvis,high,mp-25433,3D
JVASP-5308,Mn1 O2,0.009,0.027,0.018000000000000002,jarvis_3d,jarvis,high,mp-25558,3D
JVASP-350,Zr2 O4,4.0296,4.6002,0.5705999999999998,jarvis_3d,jarvis,high,mp-2574,3D
JVASP-5,Ti2 O4,1.7688,2.0697,0.30090000000000017,jarvis_3d,jarvis,high,mp-2657,3D
JVASP-302,Se1 Sn1,0.0168,0.1636,0.14679999999999999,jarvis_3d,jarvis,high,mp-2693,3D
JVASP-5311,Hg2 P2 S6,1.5976,2.5866,0.9889999999999999,jarvis_3d,jarvis,high,mp-27178,3D
JVASP-5317,C1 O3 Cu1,0.0075,0.0786,0.0711,jarvis_3d,jarvis,high,mp-27249,3D
JVASP-4279,P4 Br12,2.9922,4.1101,1.1179000000000001,jarvis_3d,jarvis,high,mp-27257,3D
JVASP-5323,Tm8 Cl16,0.0041,0.0348,0.030699999999999998,jarvis_3d,jarvis,high,mp-27302,3D
JVASP-5344,Sb4 Br12,2.8431,3.716,0.8729,jarvis_3d,jarvis,high,mp-27399,3D
JVASP-5347,Cl2 Zr2,0.0235,0.0514,0.0279,jarvis_3d,jarvis,high,mp-27440,3D
JVASP-5353,Al2 P2 S8,2.48,3.395,0.915,jarvis_3d,jarvis,high,mp-27462,3D
JVASP-5362,As16 S12,1.8079,2.4232,0.6153,jarvis_3d,jarvis,high,mp-27543,3D
JVASP-603,Si1 Te2,0.0068,0.0141,0.0073,jarvis_3d,jarvis,high,mp-2755,3D
JVASP-5368,Ti4 Br16,2.5201,2.7835,0.2634000000000003,jarvis_3d,jarvis,high,mp-27634,3D
JVASP-4252,Au4 Cl12,1.1177,1.9008,0.7831000000000001,jarvis_3d,jarvis,high,mp-27647,3D
JVASP-4186,Te16 Br8,0.0236,0.6354,0.6118,jarvis_3d,jarvis,high,mp-27648,3D
JVASP-4210,Te16 I8,0.0251,0.6368,0.6117,jarvis_3d,jarvis,high,mp-27655,3D
JVASP-5371,S6 N4 Cl4,1.3577,1.7669,0.4092,jarvis_3d,jarvis,high,mp-27699,3D
JVASP-5374,I8 Bi8,0.1152,0.9824,0.8672000000000001,jarvis_3d,jarvis,high,mp-27708,3D
JVASP-5386,Ti1 Br2,0.0039,0.0133,0.009399999999999999,jarvis_3d,jarvis,high,mp-27785,3D
JVASP-5389,C1 S14,2.2812,3.227,0.9457999999999998,jarvis_3d,jarvis,high,mp-27814,3D
JVASP-5392,Nb4 Cl12 O4,2.3076,2.6943,0.38670000000000027,jarvis_3d,jarvis,high,mp-27815,3D
JVASP-5410,Bi6 Se6,0.036,0.0435,0.0075,jarvis_3d,jarvis,high,mp-27902,3D
JVASP-179,Ge3 I6,2.062,2.5332,0.47120000000000006,jarvis_3d,jarvis,high,mp-27922,3D
JVASP-5416,Ge8 S12 I8,2.0234,3.2203,1.1968999999999999,jarvis_3d,jarvis,high,mp-27928,3D
JVASP-5431,S6 N6 Cl6,2.1796,3.3946,1.2149999999999999,jarvis_3d,jarvis,high,mp-27952,3D
JVASP-5437,C2 Br2 N2,4.8957,6.1859,1.2902000000000005,jarvis_3d,jarvis,high,mp-27989,3D
JVASP-5443,Ba4 Br4 Cl4,4.7613,6.044,1.2826999999999993,jarvis_3d,jarvis,high,mp-28049,3D
JVASP-5446,Sb2 S16 Cl6,2.4779,3.5526,1.0747,jarvis_3d,jarvis,high,mp-28064,3D
JVASP-5449,Pb4 Br8,3.1727,4.1705,0.9977999999999998,jarvis_3d,jarvis,high,mp-28077,3D
JVASP-4285,Sb8 S12,1.3179,1.8873,0.5693999999999999,jarvis_3d,jarvis,high,mp-2809,3D
JVASP-5458,Ti1 Cl2,0.0072,0.0088,0.0016000000000000007,jarvis_3d,jarvis,high,mp-28116,3D
JVASP-4276,Cl6 V2,0.0051,0.0276,0.0225,jarvis_3d,jarvis,high,mp-28117,3D
JVASP-5461,Al2 Sb2 I12,1.91,2.6311,0.7211000000000001,jarvis_3d,jarvis,high,mp-28118,3D
JVASP-54,Mo2 S4,0.9224,1.3371,0.41469999999999996,jarvis_3d,jarvis,high,mp-2815,3D
JVASP-5470,Au4 S4 Cl20,1.7321,2.3915,0.6594000000000002,jarvis_3d,jarvis,high,mp-28192,3D
JVASP-5473,Zr2 Fe2 Cl12,0.006,1.0576,1.0516,jarvis_3d,jarvis,high,mp-28208,3D
JVASP-5476,Hf2 Fe2 Cl12,0.0011,0.7806,0.7795,jarvis_3d,jarvis,high,mp-28220,3D
JVASP-5482,C1 O1 S1,4.642,5.3711,0.7290999999999999,jarvis_3d,jarvis,high,mp-28240,3D
JVASP-5485,Cd2 I4,2.1189,3.3625,1.2435999999999998,jarvis_3d,jarvis,high,mp-28248,3D
JVASP-5491,V4 Se18,0.0139,0.7394,0.7254999999999999,jarvis_3d,jarvis,high,mp-28256,3D
JVASP-5503,Te2 Au2 Cl14,1.4665,2.126,0.6595,jarvis_3d,jarvis,high,mp-28330,3D
JVASP-5506,Au4 Se4 Cl28,1.6638,2.3819,0.7181,jarvis_3d,jarvis,high,mp-28372,3D
JVASP-5509,Ga8 Br16,2.7015,3.2189,0.5174000000000003,jarvis_3d,jarvis,high,mp-28384,3D
JVASP-5524,S4 Cl8 O4,3.435,4.8043,1.3692999999999995,jarvis_3d,jarvis,high,mp-28406,3D
JVASP-4406,Sc1 Si2,0.0072,0.0085,0.0013000000000000008,jarvis_3d,jarvis,high,mp-2841,3D
JVASP-5536,O8 S2 Cu4,1.5457,1.6322,0.08650000000000002,jarvis_3d,jarvis,high,mp-28491,3D
JVASP-5539,Sm8 Cl12 O2,0.0118,0.0628,0.051,jarvis_3d,jarvis,high,mp-28544,3D
JVASP-113,Zr4 O8,3.6218,4.2132,0.5913999999999997,jarvis_3d,jarvis,high,mp-2858,3D
JVASP-5560,Cl4 I4 Ta2,1.0472,1.5306,0.48340000000000005,jarvis_3d,jarvis,high,mp-28683,3D
JVASP-5566,Al12 Te12 I4,1.9558,2.5631,0.6073,jarvis_3d,jarvis,high,mp-28693,3D