material_id,formula,pbe_bandgap,hse_bandgap,bandgap_correction,dataset,data_source,confidence,mpid,dimensionality
JVASP-11756,O8 Cr2 Ho2,0.0029,0.0033,0.0004000000000000002,jarvis_3d,jarvis,high,mp-19055,3D
JVASP-11758,O12 Ho6 W1,2.5447,3.6024,1.0576999999999996,jarvis_3d,jarvis,high,mp-19065,3D
JVASP-11774,O6 Ca1 Ba2 W1,0.6087,3.874,3.2653,jarvis_3d,jarvis,high,mp-19098,3D
JVASP-11780,O8 Mg2 Cr2,2.2279,2.5216,0.29369999999999985,jarvis_3d,jarvis,high,mp-19120,3D
JVASP-11781,O8 V2 Tb2,2.7864,3.3149,0.5285000000000002,jarvis_3d,jarvis,high,mp-19121,3D
JVASP-11782,Li2 O8 V2 Rb4,3.7689,3.9367,0.16780000000000017,jarvis_3d,jarvis,high,mp-19123,3D
JVASP-11787,O8 V2 Y2,2.7756,3.2607,0.4851000000000001,jarvis_3d,jarvis,high,mp-19133,3D
JVASP-11792,C2 O6 Ni2,0.0049,0.0535,0.0486,jarvis_3d,jarvis,high,mp-19147,3D
JVASP-11798,O8 V2 Pr2,2.8303,3.3673,0.5370000000000004,jarvis_3d,jarvis,high,mp-19169,3D
JVASP-11813,O8 Ca2 Cr2,2.1614,2.5913,0.42989999999999995,jarvis_3d,jarvis,high,mp-19215,3D
JVASP-11816,K3 Na1 Cr2 O8,2.8436,3.1797,0.33610000000000007,jarvis_3d,jarvis,high,mp-19230,3D
JVASP-11823,O8 Sc2 V2,2.4698,2.9321,0.46229999999999993,jarvis_3d,jarvis,high,mp-19247,3D
JVASP-12232,O8 Mo2 Hg2,2.2831,3.2264,0.9432999999999998,jarvis_3d,jarvis,high,mp-19363,3D
JVASP-12237,O8 V2 Sr3,3.5,3.8395,0.33950000000000014,jarvis_3d,jarvis,high,mp-19386,3D
JVASP-12244,O6 Ca1 Mo1 Ba2,2.1481,2.7341,0.5860000000000003,jarvis_3d,jarvis,high,mp-19403,3D
JVASP-12274,S6 Ga2 In2,1.5475,2.8088,1.2613,jarvis_3d,jarvis,high,mp-19885,3D
JVASP-12302,O6 In2 Ba3,0.9721,2.8224,1.8503,jarvis_3d,jarvis,high,mp-20352,3D
JVASP-12305,O12 Lu6 U1,1.956,2.2231,0.2671000000000001,jarvis_3d,jarvis,high,mp-20402,3D
JVASP-12308,O6 Ba2 Pb2,0.0763,0.4944,0.4181,jarvis_3d,jarvis,high,mp-20461,3D
JVASP-12313,Na4 C2 O6,3.5115,7.0028,3.4913,jarvis_3d,jarvis,high,mp-20495,3D
JVASP-12320,C4 N4 S4 Pb2,2.6551,3.5148,0.8597000000000001,jarvis_3d,jarvis,high,mp-20605,3D
JVASP-12323,O6 Nb1 In1 Ba2,3.4129,3.9711,0.5581999999999998,jarvis_3d,jarvis,high,mp-20620,3D
JVASP-12325,Nd4 Sc2 Si4,0.0044,0.0168,0.012399999999999998,jarvis_3d,jarvis,high,mp-20647,3D
JVASP-12331,O6 K4 Pb4,1.9676,3.1292,1.1616,jarvis_3d,jarvis,high,mp-20694,3D
JVASP-12334,Pb2 Se2 O6,3.0523,4.2328,1.1805000000000003,jarvis_3d,jarvis,high,mp-20716,3D
JVASP-12342,Sn2 Pb2 F8,3.5408,4.9161,1.3753000000000002,jarvis_3d,jarvis,high,mp-20815,3D
JVASP-12347,S8 Rb1 In5,1.2934,2.5201,1.2266999999999997,jarvis_3d,jarvis,high,mp-20938,3D
JVASP-12348,Sr4 Pb2 O8,1.4294,2.4735,1.0441,jarvis_3d,jarvis,high,mp-20944,3D
JVASP-12350,Na2 Nd2 Ti2 O8,2.4702,2.8898,0.4196,jarvis_3d,jarvis,high,mp-20980,3D
JVASP-12362,Ca4 Pb2 O8,1.5196,2.6035,1.0838999999999999,jarvis_3d,jarvis,high,mp-21137,3D
JVASP-12365,Pb2 S2 O6,3.4767,5.1677,1.6909999999999998,jarvis_3d,jarvis,high,mp-21190,3D
JVASP-12368,Fe1 Sn2 C6 N6,3.4728,3.8428,0.3700000000000001,jarvis_3d,jarvis,high,mp-21231,3D
JVASP-12384,O6 Rb4 Pb2,1.37,2.3396,0.9695999999999998,jarvis_3d,jarvis,high,mp-21489,3D
JVASP-12388,C6 N6 Fe1 Ni2,0.1675,3.488,3.3205,jarvis_3d,jarvis,high,mp-21498,3D
JVASP-12389,Na2 K4 As4 In2,0.4824,1.9833,1.5009000000000001,jarvis_3d,jarvis,high,mp-21510,3D
JVASP-12390,Na2 P4 K4 In2,1.1144,2.371,1.2566,jarvis_3d,jarvis,high,mp-21511,3D
JVASP-12409,Li8 O8 Pb2,1.4217,2.6045,1.1827999999999999,jarvis_3d,jarvis,high,mp-22170,3D
JVASP-12412,O6 Nb1 Ba2 Sm1,2.9243,3.6772,0.7528999999999999,jarvis_3d,jarvis,high,mp-22184,3D
JVASP-12417,O6 Ba2 Pb2,0.0849,0.5373,0.4524,jarvis_3d,jarvis,high,mp-22230,3D
JVASP-12428,S6 In4,0.7286,1.4765,0.7478999999999999,jarvis_3d,jarvis,high,mp-22375,3D
JVASP-12429,Li4 O6 Pb2,1.1226,2.0974,0.9747999999999999,jarvis_3d,jarvis,high,mp-22450,3D
JVASP-12435,Li8 O6 Pb1,2.4141,3.463,1.0489000000000002,jarvis_3d,jarvis,high,mp-22538,3D
JVASP-12438,Se8 Cd2 In4,0.7604,1.2607,0.5003,jarvis_3d,jarvis,high,mp-22587,3D
JVASP-12450,Pb2 C4 O8,2.8558,3.8706,1.0148000000000001,jarvis_3d,jarvis,high,mp-22747,3D
JVASP-12452,O6 K4 Pb2,1.3122,2.5061,1.1939,jarvis_3d,jarvis,high,mp-22756,3D
JVASP-12460,O12 Cl4,1.2206,1.3147,0.09410000000000007,jarvis_3d,jarvis,high,mp-22869,3D
JVASP-12465,Bi4 Cl12,3.0678,4.1783,1.1105,jarvis_3d,jarvis,high,mp-22908,3D
JVASP-12471,Cu4 Bi4 S8,0.0213,0.8784,0.8571,jarvis_3d,jarvis,high,mp-22982,3D
JVASP-12473,Pb4 Br4 Cl4,3.551,4.4587,0.9077000000000002,jarvis_3d,jarvis,high,mp-22997,3D
JVASP-12474,Hg6 Cl4 O4,0.3659,1.3668,1.0009000000000001,jarvis_3d,jarvis,high,mp-22999,3D
JVASP-12475,Bi4 Te7 Pb1,0.1207,0.8172,0.6965,jarvis_3d,jarvis,high,mp-23005,3D
JVASP-12477,O8 Sb2 Bi2,2.6788,3.414,0.7352000000000003,jarvis_3d,jarvis,high,mp-23018,3D
JVASP-12478,Cl8 Zn2 Sr2,4.5104,6.5159,2.0055000000000005,jarvis_3d,jarvis,high,mp-23034,3D
JVASP-12480,Br10 Rb2 Pb4,3.0326,4.0235,0.9909000000000003,jarvis_3d,jarvis,high,mp-23043,3D
JVASP-12481,B3 N3 Cl6,2.6804,3.0856,0.4051999999999998,jarvis_3d,jarvis,high,mp-23045,3D
JVASP-12484,O6 Na2 Bi2,1.0482,1.8365,0.7883,jarvis_3d,jarvis,high,mp-23054,3D
JVASP-12487,K1 As4 Br1 O6,3.0508,4.7363,1.6854999999999998,jarvis_3d,jarvis,high,mp-23083,3D
JVASP-12488,O4 Cl2 Pb2 Bi2,2.1682,3.2913,1.1231,jarvis_3d,jarvis,high,mp-23084,3D
JVASP-12489,O6 Sb1 Ba2 Bi1,2.0782,2.9737,0.8955000000000002,jarvis_3d,jarvis,high,mp-23091,3D
JVASP-12492,O9 Nb2 Pb1 Bi2,1.2962,1.589,0.29279999999999995,jarvis_3d,jarvis,high,mp-23101,3D
JVASP-12493,O2 F2 Cl2 Pb4,2.6492,3.8795,1.2303000000000002,jarvis_3d,jarvis,high,mp-23104,3D
JVASP-12496,K1 As4 I1 O6,2.547,4.0854,1.5383999999999998,jarvis_3d,jarvis,high,mp-23126,3D
JVASP-12497,O6 Sb1 Ba2 Bi1,2.0297,2.9245,0.8948,jarvis_3d,jarvis,high,mp-23127,3D
JVASP-12500,Ag4 Hg4 S4 I4,1.2331,2.4208,1.1876999999999998,jarvis_3d,jarvis,high,mp-23140,3D
JVASP-12506,Bi4 F12,5.1673,6.5104,1.3430999999999997,jarvis_3d,jarvis,high,mp-23237,3D
JVASP-12511,Pb4 Cl8,3.9219,5.0766,1.1547,jarvis_3d,jarvis,high,mp-23291,3D
JVASP-12513,I4 O12,1.805,2.3978,0.5928000000000002,jarvis_3d,jarvis,high,mp-23315,3D
JVASP-12514,Bi4 S4 Cl4,1.8197,2.7404,0.9207000000000001,jarvis_3d,jarvis,high,mp-23318,3D
JVASP-12517,B3 O6 Bi1,3.973,5.6846,1.7115999999999998,jarvis_3d,jarvis,high,mp-23349,3D
JVASP-12519,Zn2 I4 O12,3.145,4.0014,0.8564000000000003,jarvis_3d,jarvis,high,mp-23360,3D
JVASP-12522,Hg2 I4 O12,2.7402,4.0226,1.2823999999999995,jarvis_3d,jarvis,high,mp-23407,3D
JVASP-12528,O10 Ge2 Bi4,2.4447,4.1565,1.7118000000000002,jarvis_3d,jarvis,high,mp-23446,3D
JVASP-12529,O8 Rb2 I2,2.4541,3.8229,1.3688000000000002,jarvis_3d,jarvis,high,mp-23450,3D
JVASP-12533,Rb2 Ni2 Cl6,0.0075,0.0221,0.014600000000000002,jarvis_3d,jarvis,high,mp-23486,3D
JVASP-12535,K4 Zn2 Br8,3.6819,5.8396,2.1576999999999997,jarvis_3d,jarvis,high,mp-23495,3D
JVASP-12536,Br10 In2 Sn4,2.2408,2.5054,0.2645999999999997,jarvis_3d,jarvis,high,mp-23507,3D
JVASP-12540,K4 Zn2 Br8,3.7601,5.9084,2.1483000000000003,jarvis_3d,jarvis,high,mp-23535,3D
JVASP-12541,Sb1 I3 Cl8,0.8152,2.0784,1.2631999999999999,jarvis_3d,jarvis,high,mp-23536,3D
JVASP-12544,F8 K2 Br2,3.1375,5.4281,2.2905999999999995,jarvis_3d,jarvis,high,mp-23550,3D
JVASP-12549,O9 Ba1 Ta2 Bi2,2.1313,3.2023,1.0710000000000002,jarvis_3d,jarvis,high,mp-23611,3D
JVASP-12551,H3 C3 O6 Y1,4.018,5.8812,1.8632,jarvis_3d,jarvis,high,mp-23664,3D
JVASP-12552,H8 Br2 N2,4.4907,6.023,1.5322999999999993,jarvis_3d,jarvis,high,mp-23675,3D
JVASP-12553,H2 C2 O4 Na2,4.8089,6.9966,2.1876999999999995,jarvis_3d,jarvis,high,mp-23684,3D
JVASP-12555,H8 Na2 Al2,4.8653,7.0316,2.1662999999999997,jarvis_3d,jarvis,high,mp-23704,3D
JVASP-12556,Mg1 Al2 H8,4.6642,6.6006,1.9364,jarvis_3d,jarvis,high,mp-23709,3D
JVASP-12557,Mg4 H8,3.9833,5.6732,1.6898999999999997,jarvis_3d,jarvis,high,mp-23711,3D
JVASP-12558,Mg4 H8,2.3712,3.8511,1.4799000000000002,jarvis_3d,jarvis,high,mp-23712,3D
JVASP-12559,Ca4 H8,3.3015,4.5068,1.2053000000000003,jarvis_3d,jarvis,high,mp-23713,3D
JVASP-12560,Sr4 H8,3.4366,4.6167,1.1801,jarvis_3d,jarvis,high,mp-23714,3D
JVASP-12561,Ba4 H8,2.9992,3.9873,0.9880999999999998,jarvis_3d,jarvis,high,mp-23715,3D
JVASP-12562,Be2 Al2 H10,3.7443,5.1547,1.4104,jarvis_3d,jarvis,high,mp-23719,3D
JVASP-12563,H10 Be2 Al2,3.8683,5.3235,1.4552,jarvis_3d,jarvis,high,mp-23720,3D
JVASP-12566,H8 N2 Cl6 Sn1,2.0912,3.4836,1.3923999999999999,jarvis_3d,jarvis,high,mp-23763,3D
JVASP-12568,H3 C3 O6 Sm1,4.3147,6.2701,1.9554,jarvis_3d,jarvis,high,mp-23771,3D
JVASP-12569,H8 N4 O6,3.1391,4.37,1.2309,jarvis_3d,jarvis,high,mp-23790,3D
JVASP-12570,H3 C3 O6 Nd1,4.3679,6.2959,1.928,jarvis_3d,jarvis,high,mp-23837,3D
JVASP-12571,Hg4 H4 O4 F4,1.3948,2.9152,1.5204,jarvis_3d,jarvis,high,mp-23844,3D
JVASP-12572,H8 N4 Na4,2.0595,4.7606,2.7011000000000003,jarvis_3d,jarvis,high,mp-23850,3D
JVASP-12574,H4 O8 Ge2 Sr2,4.2654,6.4798,2.2144000000000004,jarvis_3d,jarvis,high,mp-23884,3D
JVASP-12575,Ba2 H8 O6,4.4192,6.5302,2.1109999999999998,jarvis_3d,jarvis,high,mp-23904,3D
JVASP-12576,H8 Na2 Ga2,4.7526,7.247,2.4943999999999997,jarvis_3d,jarvis,high,mp-23918,3D
JVASP-12577,H8 O8,4.1737,5.8889,1.7151999999999994,jarvis_3d,jarvis,high,mp-23939,3D
JVASP-12581,H4 O10 Mg2 Se2,3.6462,5.1048,1.4586000000000001,jarvis_3d,jarvis,high,mp-23966,3D
JVASP-12584,Rb4 H2 Br2 O2,3.6057,5.6683,2.0626,jarvis_3d,jarvis,high,mp-24007,3D
JVASP-12585,Zr1 P2 H2 O6,4.3156,4.8993,0.5837000000000003,jarvis_3d,jarvis,high,mp-24030,3D
JVASP-12588,Dy2 H6 O6,3.7948,6.1384,2.3436,jarvis_3d,jarvis,high,mp-24074,3D
JVASP-12589,Ho2 H6 O6,3.8008,6.1459,2.3451,jarvis_3d,jarvis,high,mp-24075,3D
JVASP-12590,Y2 H6 O6,3.8982,6.3362,2.4379999999999997,jarvis_3d,jarvis,high,mp-24076,3D
JVASP-12591,H8 O4 I4 Ba2,3.9884,5.3311,1.3427000000000002,jarvis_3d,jarvis,high,mp-24090,3D
JVASP-12592,H4 N4 Ca8,1.7316,2.8263,1.0946999999999998,jarvis_3d,jarvis,high,mp-24119,3D
JVASP-12593,Tb2 H6 O6,3.7911,6.1325,2.3414,jarvis_3d,jarvis,high,mp-24121,3D
JVASP-12599,P2 H8 I2,3.9078,4.82,0.9122000000000003,jarvis_3d,jarvis,high,mp-24409,3D
JVASP-12600,K2 H2 Se2 O6,4.3247,5.892,1.5673000000000004,jarvis_3d,jarvis,high,mp-24433,3D
JVASP-12602,K4 H2 Br2 O2,3.8351,6.6476,2.8124999999999996,jarvis_3d,jarvis,high,mp-24589,3D
JVASP-12603,Er2 H6 O6,3.8085,6.1518,2.3432999999999997,jarvis_3d,jarvis,high,mp-24645,3D
JVASP-12609,C2 O6 Co2,0.0063,0.0151,0.0088,jarvis_3d,jarvis,high,mp-24854,3D
JVASP-12615,O8 Cr4 Co2,0.0062,0.0416,0.0354,jarvis_3d,jarvis,high,mp-24868,3D
JVASP-12630,Na4 Fe4 O8,0.003,0.0185,0.0155,jarvis_3d,jarvis,high,mp-24939,3D
JVASP-12665,O8 V2 In2,2.9729,3.5416,0.5686999999999998,jarvis_3d,jarvis,high,mp-25113,3D
JVASP-12666,O8 V2 Bi2,2.1759,2.4037,0.22780000000000022,jarvis_3d,jarvis,high,mp-25122,3D
JVASP-12668,O8 V2 Pb3,2.861,2.9813,0.12029999999999985,jarvis_3d,jarvis,high,mp-25142,3D
JVASP-12679,O8 Ti4,1.7387,2.2515,0.5128000000000001,jarvis_3d,jarvis,high,mp-25262,3D
JVASP-12680,O12 Si4 Ti2,3.3152,3.7048,0.38960000000000017,jarvis_3d,jarvis,high,mp-25301,3D
JVASP-12682,Li2 Ti2 P2 O8 F2,0.001,0.0011,0.00010000000000000005,jarvis_3d,jarvis,high,mp-25420,3D
JVASP-12708,Mg2 Mo2 H4 O10,4.1124,4.609,0.49659999999999993,jarvis_3d,jarvis,high,mp-25582,3D
JVASP-12727,F6 Sn4 I2,2.536,3.3368,0.8008000000000002,jarvis_3d,jarvis,high,mp-27167,3D
JVASP-12728,P2 S7 Hg2,1.7392,2.6067,0.8674999999999999,jarvis_3d,jarvis,high,mp-27171,3D
JVASP-12730,O4 F4 In4,1.5435,3.6709,2.1273999999999997,jarvis_3d,jarvis,high,mp-27175,3D
JVASP-12732,Nd4 S4 Br4,2.5729,3.3894,0.8165,jarvis_3d,jarvis,high,mp-27180,3D
JVASP-12733,Cl8 Tl4,1.9477,2.5529,0.6052000000000002,jarvis_3d,jarvis,high,mp-27205,3D
JVASP-12735,Li2 O4 Ag6,0.8559,1.373,0.5171,jarvis_3d,jarvis,high,mp-27227,3D
JVASP-12739,O6 Au4,0.9734,1.3843,0.41090000000000004,jarvis_3d,jarvis,high,mp-27253,3D
JVASP-12740,O12 Te4 Ba2,1.9079,2.5398,0.6319000000000001,jarvis_3d,jarvis,high,mp-27254,3D
JVASP-12741,S4 Ga4 Te2,2.0718,2.9363,0.8645,jarvis_3d,jarvis,high,mp-27255,3D
JVASP-12742,O6 Cl6 Au6,1.0994,1.4755,0.3761000000000001,jarvis_3d,jarvis,high,mp-27265,3D
JVASP-12746,Br6 Rb2 Au2,0.0132,0.4679,0.4547,jarvis_3d,jarvis,high,mp-27300,3D
JVASP-12747,O4 Na2 Ag6,0.7916,1.3466,0.555,jarvis_3d,jarvis,high,mp-27303,3D
JVASP-12752,Rb2 Ge2 Cl6,3.7155,4.8659,1.1503999999999999,jarvis_3d,jarvis,high,mp-27369,3D
JVASP-12754,Sn4 Cl4 F4,3.3124,4.4738,1.1614,jarvis_3d,jarvis,high,mp-27373,3D
JVASP-12755,Cl8 K2 Tl2,2.1241,3.6214,1.4973,jarvis_3d,jarvis,high,mp-27385,3D
JVASP-12757,O8 Na2 I2,1.8446,3.282,1.4374,jarvis_3d,jarvis,high,mp-27401,3D
JVASP-12763,Li7 O6 Sb1,3.719,4.975,1.2559999999999998,jarvis_3d,jarvis,high,mp-27453,3D
JVASP-12764,Ba4 Br8,4.2595,5.4628,1.2032999999999996,jarvis_3d,jarvis,high,mp-27456,3D
JVASP-12769,O2 F4 Sn4,2.6421,3.7835,1.1414,jarvis_3d,jarvis,high,mp-27480,3D
JVASP-12770,Li6 Th3 N6,2.2928,3.0057,0.7128999999999999,jarvis_3d,jarvis,high,mp-27487,3D
JVASP-12773,Li6 N1 Br3,2.5185,3.9417,1.4232,jarvis_3d,jarvis,high,mp-27508,3D
JVASP-12782,Be4 O7 Te1,1.4671,2.6342,1.1670999999999998,jarvis_3d,jarvis,high,mp-27608,3D
JVASP-12788,S4 Cu2 Tl2,0.0023,0.0047,0.0024000000000000002,jarvis_3d,jarvis,high,mp-14089,3D
JVASP-12792,B4 Se14 Rb4,1.7326,2.7203,0.9877,jarvis_3d,jarvis,high,mp-16184,3D
JVASP-12798,Na12 S12 Ga4,2.888,4.6661,1.7781000000000002,jarvis_3d,jarvis,high,mp-18165,3D
JVASP-12800,Al4 K12 Te12,2.2188,2.9739,0.7551000000000001,jarvis_3d,jarvis,high,mp-18378,3D
JVASP-12807,S10 Rb8 In4,2.039,3.4507,1.4116999999999997,jarvis_3d,jarvis,high,mp-27670,3D
JVASP-12818,Na10 In2 S8,2.0234,3.8182,1.7948,jarvis_3d,jarvis,high,mp-29376,3D
JVASP-12821,B4 S12 K12,2.7395,4.0095,1.27,jarvis_3d,jarvis,high,mp-29975,3D
JVASP-12822,Rb12 S12 B4,2.6713,3.9826,1.3113000000000001,jarvis_3d,jarvis,high,mp-29977,3D
JVASP-12831,B6 O12 Na6,4.487,7.0598,2.5728,jarvis_3d,jarvis,high,mp-3889,3D
JVASP-12833,B4 S14 K4,2.5705,3.6312,1.0607000000000002,jarvis_3d,jarvis,high,mp-4351,3D
JVASP-12839,K12 Ga4 S12,2.8908,4.5756,1.6847999999999996,jarvis_3d,jarvis,high,mp-541686,3D
JVASP-12846,B4 K4 Se14,1.633,2.6635,1.0305,jarvis_3d,jarvis,high,mp-542637,3D
JVASP-12848,O4 In2 Cu2,0.4369,0.529,0.09210000000000002,jarvis_3d,jarvis,high,mp-549158,3D
JVASP-12850,Na14 Al6 O16,3.062,5.7034,2.6414000000000004,jarvis_3d,jarvis,high,mp-556168,3D
JVASP-12851,Ga2 Ag2 S4,0.9371,2.3663,1.4291999999999998,jarvis_3d,jarvis,high,mp-556916,3D
JVASP-12862,In5 Ag1 Se8,0.57,1.3193,0.7493,jarvis_3d,jarvis,high,mp-571103,3D
JVASP-12873,Na10 In2 O8,1.9366,4.4097,2.4730999999999996,jarvis_3d,jarvis,high,mp-8840,3D
JVASP-12875,B4 S12 Rb4,2.3378,3.3563,1.0185,jarvis_3d,jarvis,high,mp-9047,3D
JVASP-12878,Cu2 B2 Se4,1.617,2.1166,0.49960000000000004,jarvis_3d,jarvis,high,mp-983565,3D
JVASP-14489,Dy1 Zn1,0.0056,0.0306,0.024999999999999998,jarvis_3d,jarvis,high,mp-2303,3D
JVASP-14492,Nb3 O3,0.0056,0.0101,0.0045,jarvis_3d,jarvis,high,mp-2311,3D
JVASP-14498,Be1 Cu1,0.0297,0.0471,0.017400000000000002,jarvis_3d,jarvis,high,mp-2323,3D
JVASP-14513,Ti6 Hg2,0.0045,0.0046,0.00010000000000000026,jarvis_3d,jarvis,high,mp-2354,3D
JVASP-14514,Al4 Sm2,0.0111,0.0237,0.012599999999999998,jarvis_3d,jarvis,high,mp-2358,3D
JVASP-14517,Mo4 Hf2,0.0062,0.0256,0.0194,jarvis_3d,jarvis,high,mp-2363,3D
JVASP-14525,Si2 Co1,0.0168,0.0285,0.011700000000000002,jarvis_3d,jarvis,high,mp-2379,3D
JVASP-14526,Er1 Rh1,0.0038,0.0043,0.0005,jarvis_3d,jarvis,high,mp-2381,3D
JVASP-14533,Yb1 Pd3,0.0091,0.0097,0.0005999999999999998,jarvis_3d,jarvis,high,mp-2391,3D
JVASP-14543,P4 W4,0.0007,0.0242,0.0235,jarvis_3d,jarvis,high,mp-2420,3D
JVASP-14544,Er1 Ga2,0.0108,0.0176,0.0068000000000000005,jarvis_3d,jarvis,high,mp-2422,3D
JVASP-14549,Er1 Tl3,0.0083,0.0285,0.020200000000000003,jarvis_3d,jarvis,high,mp-2431,3D
JVASP-14551,Ho1 Co5,0.0076,0.008,0.0004000000000000002,jarvis_3d,jarvis,high,mp-2435,3D
JVASP-14567,Y1 Ag1,0.0054,0.0315,0.026099999999999998,jarvis_3d,jarvis,high,mp-2474,3D
JVASP-14568,Sm1 Ag1,0.001,0.0035,0.0025,jarvis_3d,jarvis,high,mp-2475,3D
JVASP-14570,Mn4 Dy2,0.0035,0.0049,0.0013999999999999998,jarvis_3d,jarvis,high,mp-2483,3D
JVASP-14573,C1 U1,0.0045,0.0121,0.0076,jarvis_3d,jarvis,high,mp-2489,3D
JVASP-14574,Se1 Er1,0.0197,0.031,0.011300000000000001,jarvis_3d,jarvis,high,mp-2491,3D
JVASP-14580,B2 Mo4,0.0028,0.0056,0.0028,jarvis_3d,jarvis,high,mp-2501,3D
JVASP-14584,Cr1 Pt3,0.005,0.0179,0.012899999999999998,jarvis_3d,jarvis,high,mp-2515,3D
JVASP-14939,Ti3 Hg1,0.0147,0.0553,0.040600000000000004,jarvis_3d,jarvis,high,mp-2560,3D
JVASP-14941,Pr1 Ag1,0.0044,0.0049,0.0004999999999999996,jarvis_3d,jarvis,high,mp-2525,3D
JVASP-14943,Te1 Pr1,0.0107,0.0107,0.0,jarvis_3d,jarvis,high,mp-2532,3D
JVASP-14946,V1 Tc1,0.0096,0.0445,0.0349,jarvis_3d,jarvis,high,mp-2540,3D
JVASP-14955,Al3 V1,0.0101,0.0167,0.0066,jarvis_3d,jarvis,high,mp-2554,3D
JVASP-14958,S1 Se1,0.0141,0.0154,0.0013000000000000008,jarvis_3d,jarvis,high,mp-2559,3D
JVASP-14967,B2 Nb2,0.0015,0.0018,0.0002999999999999999,jarvis_3d,jarvis,high,mp-2580,3D
JVASP-14968,Si4 Ti2,0.0007,0.0045,0.0037999999999999996,jarvis_3d,jarvis,high,mp-2582,3D
JVASP-14970,Si2 Mo1,0.0037,0.0148,0.0111,jarvis_3d,jarvis,high,mp-2592,3D
JVASP-14975,N1 Nd1,0.3712,0.7116,0.34040000000000004,jarvis_3d,jarvis,high,mp-2599,3D
JVASP-14976,As1 Nd1,0.1305,0.3055,0.175,jarvis_3d,jarvis,high,mp-2602,3D
JVASP-14981,Al3 Hf1,0.0018,0.005,0.0032,jarvis_3d,jarvis,high,mp-2614,3D
JVASP-14984,Fe2 Sb2,0.0098,0.0111,0.0013000000000000008,jarvis_3d,jarvis,high,mp-2619,3D
JVASP-14987,As1 Dy1,0.1849,0.3381,0.1532,jarvis_3d,jarvis,high,mp-2627,3D
JVASP-14992,Na3 N1,0.1962,0.2578,0.06159999999999996,jarvis_3d,jarvis,high,mp-2639,3D
JVASP-14993,As1 Tb1,0.1767,0.3249,0.14820000000000003,jarvis_3d,jarvis,high,mp-2640,3D
JVASP-14994,Cd1 Ag1,0.0342,0.0641,0.029900000000000003,jarvis_3d,jarvis,high,mp-2642,3D
JVASP-15011,Be4 Ta2,0.0837,0.086,0.0022999999999999965,jarvis_3d,jarvis,high,mp-2676,3D
JVASP-15015,Tb1 Ga2,0.0045,0.009,0.0045,jarvis_3d,jarvis,high,mp-2684,3D
JVASP-15024,Si2 Ca1,0.0059,0.0061,0.00020000000000000052,jarvis_3d,jarvis,high,mp-2700,3D
JVASP-15025,Nb2 N2,0.0352,0.0445,0.009299999999999996,jarvis_3d,jarvis,high,mp-2701,3D
JVASP-15026,U2 Sb4,0.0005,0.0006,9.999999999999994e-05,jarvis_3d,jarvis,high,mp-2707,3D
JVASP-15031,Sb1 Tb1,0.1215,0.1715,0.05000000000000002,jarvis_3d,jarvis,high,mp-2724,3D
JVASP-15032,Tb2 Ir4,0.005,0.0057,0.0007000000000000001,jarvis_3d,jarvis,high,mp-2725,3D
JVASP-15033,Te1 Hg1,0.2095,0.8198,0.6103,jarvis_3d,jarvis,high,mp-2730,3D
JVASP-15034,Ti1 Ga3,0.0006,0.0011,0.0005000000000000001,jarvis_3d,jarvis,high,mp-2731,3D
JVASP-15039,Li1 Pd1,0.0322,0.0549,0.022699999999999998,jarvis_3d,jarvis,high,mp-2743,3D
JVASP-15050,Ti2 Ga2,0.0036,0.0183,0.014700000000000001,jarvis_3d,jarvis,high,mp-2767,3D
JVASP-15052,Mn4 Ho2,0.0034,0.0061,0.0027000000000000006,jarvis_3d,jarvis,high,mp-2769,3D
JVASP-15055,Ga2 Au1,0.0037,0.0126,0.0089,jarvis_3d,jarvis,high,mp-2776,3D
JVASP-15058,Sc1 Pd1,0.0067,0.0104,0.0036999999999999993,jarvis_3d,jarvis,high,mp-2781,3D
JVASP-15059,Si2 Ta4,0.001,0.0016,0.0006000000000000001,jarvis_3d,jarvis,high,mp-2783,3D
JVASP-15064,Hf1 Ru1,0.0075,0.0423,0.0348,jarvis_3d,jarvis,high,mp-2802,3D
JVASP-15066,P1 Sc1,0.1469,0.217,0.0701,jarvis_3d,jarvis,high,mp-2807,3D
JVASP-15069,Yb1 Au1,0.0076,0.0089,0.0013,jarvis_3d,jarvis,high,mp-2818,3D
JVASP-15071,Se1 Tm1,0.0133,0.0183,0.005000000000000001,jarvis_3d,jarvis,high,mp-2822,3D
JVASP-15072,P1 Nd1,0.0873,0.2765,0.18920000000000003,jarvis_3d,jarvis,high,mp-2823,3D
JVASP-15076,Fe2 Pd2,0.0027,0.0048,0.0020999999999999994,jarvis_3d,jarvis,high,mp-2831,3D
JVASP-15084,B4 Os2,0.0032,0.0035,0.0002999999999999999,jarvis_3d,jarvis,high,mp-2850,3D
JVASP-15086,N1 Sc1,0.3578,0.736,0.3782,jarvis_3d,jarvis,high,mp-2857,3D
JVASP-15101,Si2 Ni2 Ho1,0.0022,0.0029,0.0006999999999999997,jarvis_3d,jarvis,high,mp-2924,3D
JVASP-15112,Sr1 Mn2 Sb2,0.0132,0.0258,0.0126,jarvis_3d,jarvis,high,mp-2968,3D
JVASP-15113,C4 Cr4 U1,0.0002,0.0008,0.0006000000000000001,jarvis_3d,jarvis,high,mp-2971,3D
JVASP-15123,Si2 Mn2 Nd1,0.0013,0.0026,0.0013,jarvis_3d,jarvis,high,mp-3018,3D
JVASP-15126,Tb1 B1 Pd3,0.0043,0.0046,0.0002999999999999999,jarvis_3d,jarvis,high,mp-3022,3D
JVASP-15129,U2 Te2 O2,0.0024,0.0029,0.0005,jarvis_3d,jarvis,high,mp-3037,3D
JVASP-15132,Dy3 Al3 Ni3,0.0017,0.0064,0.0047,jarvis_3d,jarvis,high,mp-3053,3D