material_id,formula,pbe_bandgap,hse_bandgap,bandgap_correction,dataset,data_source,confidence,mpid,dimensionality
JVASP-61272,Te4 Au4 I4,0.8524,1.1468,0.2944,jarvis_3d,jarvis,high,auid-47ba0a2f499e3280,3D
JVASP-61273,Li6 As2,0.7638,1.1075,0.3436999999999999,jarvis_3d,jarvis,high,auid-47e01f025dc07f4f,3D
JVASP-61278,As2 F10,4.5305,6.443,1.9124999999999996,jarvis_3d,jarvis,high,auid-4847d00fc9e06a73,3D
JVASP-61305,B2 Br2 Mg4 N4,3.6203,4.9735,1.3531999999999997,jarvis_3d,jarvis,high,auid-4d57b3ccfc824cee,3D
JVASP-61327,Al8 Si4 O20,5.9228,7.2539,1.3311000000000002,jarvis_3d,jarvis,high,auid-514120a99947825e,3D
JVASP-61358,As3 B3 O12,4.1454,5.556,1.4105999999999996,jarvis_3d,jarvis,high,auid-565359baba634d02,3D
JVASP-61501,Na4 Ca4 As4 O16,3.762,6.0126,2.2506,jarvis_3d,jarvis,high,auid-6abefcf9fd93bfff,3D
JVASP-61574,As1 B1 O4,4.469,6.027,1.5579999999999998,jarvis_3d,jarvis,high,auid-77803eb3b3d7cf46,3D
JVASP-61624,Au4 Er1,0.0005,0.0055,0.004999999999999999,jarvis_3d,jarvis,high,auid-7e62a3bd5a575423,3D
JVASP-61629,Ca1 As2 O6,3.4791,4.8142,1.3350999999999997,jarvis_3d,jarvis,high,auid-7ebc02ca6b514248,3D
JVASP-61639,Al1 Be1 Cl1 Na4 O12 Si4,4.7662,7.6496,2.8834,jarvis_3d,jarvis,high,auid-7fe1b1522e35e4f6,3D
JVASP-61646,Al1 F6 K3,6.7923,10.3665,3.5742000000000003,jarvis_3d,jarvis,high,auid-80c10bcea48c9956,3D
JVASP-61703,Al1 Be1 Cl1 Na4 O12 Si4,4.7663,7.6506,2.8842999999999996,jarvis_3d,jarvis,high,auid-882e7b8c121890cc,3D
JVASP-61729,Al4 H12,3.4883,5.6934,2.2050999999999994,jarvis_3d,jarvis,high,auid-8bc7e1a16279abff,3D
JVASP-61785,Sm2 Sb4 Au2,0.0079,0.0133,0.0053999999999999986,jarvis_3d,jarvis,high,auid-95eec2c3452d733b,3D
JVASP-61798,Ga3 As3 O12,3.1975,5.0103,1.8128000000000002,jarvis_3d,jarvis,high,auid-97e8bf5f934518ef,3D
JVASP-61815,Mg4 Be4 Al16 O32,6.0738,7.4335,1.3597000000000001,jarvis_3d,jarvis,high,auid-99ca4a9ac65183a2,3D
JVASP-61884,Te4 As4 Ru4,0.8483,0.8801,0.03179999999999994,jarvis_3d,jarvis,high,auid-a4100216e767fa4b,3D
JVASP-61909,Al1 Be1 Cl1 Na4 O12 Si4,4.7663,7.6505,2.8842,jarvis_3d,jarvis,high,auid-a70f446e276db80c,3D
JVASP-61919,B4 Cu4 O12 Sr2,0.0133,0.0146,0.0013000000000000008,jarvis_3d,jarvis,high,auid-a8777b0e4ab48003,3D
JVASP-62003,Dy4 Al4 Au4,0.003,0.0034,0.00039999999999999975,jarvis_3d,jarvis,high,auid-b4c1151be8c51f78,3D
JVASP-62041,Li4 Al4 H16,4.8677,6.7308,1.8631000000000002,jarvis_3d,jarvis,high,auid-bb3c1cf37c4263ba,3D
JVASP-62045,Au4 Br4,1.8695,2.657,0.7875000000000001,jarvis_3d,jarvis,high,auid-bc329eea5cc758d6,3D
JVASP-62061,Ba3 Ge2 B6 O16,4.241,6.1889,1.9479000000000006,jarvis_3d,jarvis,high,auid-be1fd8b67f610757,3D
JVASP-62112,Al1 Be1 Cl1 Na4 O12 Si4,4.7661,7.6497,2.8836000000000004,jarvis_3d,jarvis,high,auid-c57894384032eab4,3D
JVASP-62175,Te9 As6,0.0096,0.4886,0.479,jarvis_3d,jarvis,high,auid-ce9f0765df4441f6,3D
JVASP-62177,Au2 K2 N24,1.4757,1.6343,0.15860000000000007,jarvis_3d,jarvis,high,auid-ceda76f745d5abea,3D
JVASP-62191,Cu4 As16 S12 Cl4,1.4221,2.0332,0.6111,jarvis_3d,jarvis,high,auid-d17b2a4b5b4acab8,3D
JVASP-62215,Al6 Ca4 O12 S1,3.8077,6.3296,2.5219,jarvis_3d,jarvis,high,auid-d54bc3d76ca2666e,3D
JVASP-62221,Al1 Be1 Cl1 Na4 O12 Si4,4.7661,7.6507,2.8846,jarvis_3d,jarvis,high,auid-d5ee9d59237d3c9f,3D
JVASP-62276,Al1 Mn3,0.0032,0.0118,0.0086,jarvis_3d,jarvis,high,auid-dcdbdf7f35126e05,3D
JVASP-62279,P4 Au4 Cl4 F12,3.2509,4.4432,1.1923,jarvis_3d,jarvis,high,auid-dd0b7b1667ada500,3D
JVASP-62285,Na1 H12 Au1 C4 S4 O12,2.3322,2.4577,0.12550000000000017,jarvis_3d,jarvis,high,auid-dddf72b887a54b04,3D
JVASP-62314,As4 Cu2 K10,0.3651,1.5152,1.1501000000000001,jarvis_3d,jarvis,high,auid-e19746777f9b231a,3D
JVASP-62325,K4 As2 Au2 S8,0.126,1.73,1.604,jarvis_3d,jarvis,high,auid-e38b4fe985f23098,3D
JVASP-62327,Al2 B2 H6 Na2 O20 P4,6.2352,8.4255,2.1902999999999997,jarvis_3d,jarvis,high,auid-e3c7544c55e489cf,3D
JVASP-62342,Al6 V6 O24,2.9595,3.2156,0.2561,jarvis_3d,jarvis,high,auid-e5e5bc6dd985dbbd,3D
JVASP-62345,As2 Pb1 O6,2.3378,3.1608,0.823,jarvis_3d,jarvis,high,auid-e608457e90ad26d4,3D
JVASP-62356,B2 O14 P2 Zn6,3.4972,5.4361,1.9388999999999998,jarvis_3d,jarvis,high,auid-e7989324da127123,3D
JVASP-62390,As1 B1 O4,4.4689,6.0267,1.5578000000000003,jarvis_3d,jarvis,high,auid-eb883d8930ba2379,3D
JVASP-62413,Au4 C4 Cl12 S8,1.8376,2.2834,0.4458,jarvis_3d,jarvis,high,auid-ee5f7cf6ce652beb,3D
JVASP-62415,B4 Ca2 H16,5.0235,6.9347,1.9112,jarvis_3d,jarvis,high,auid-ee7d5d0d5ebbe87c,3D
JVASP-62434,Al1 Be1 Cl1 Na4 O12 Si4,4.7664,7.6506,2.8842,jarvis_3d,jarvis,high,auid-f20bba5b264f87f7,3D
JVASP-62464,Ca1 As2 O6,3.4789,4.8145,1.3356,jarvis_3d,jarvis,high,auid-f57ee37b2a05c277,3D
JVASP-62513,H6 Au2 C4 N2 Cl2,3.4431,3.9458,0.5027000000000004,jarvis_3d,jarvis,high,auid-fc7c95386f5d33fe,3D
JVASP-62522,K4 As8 F28,4.9327,7.117,2.1843000000000004,jarvis_3d,jarvis,high,auid-fdd8fc9216814388,3D
JVASP-62546,Sr4 B8 S16,2.871,3.5721,0.7010999999999998,jarvis_3d,jarvis,high,auid-0d981561287a94ca,3D
JVASP-62553,B4 Be4 Ca2 F2 Na2 O12,5.3964,8.1519,2.7554999999999996,jarvis_3d,jarvis,high,auid-111625377218fa99,3D
JVASP-62561,Zr1 B1 Rh3,0.1122,0.1914,0.07919999999999999,jarvis_3d,jarvis,high,auid-18d412c6947b5394,3D
JVASP-62568,B2 N2,3.652,5.3365,1.6844999999999999,jarvis_3d,jarvis,high,auid-1f3c8b35c5f6e194,3D
JVASP-62575,B1 Br1 N2 Sr2,2.5979,4.1536,1.5556999999999999,jarvis_3d,jarvis,high,auid-21d39af22404468d,3D
JVASP-62618,B2 N2,4.4596,6.1143,1.6547,jarvis_3d,jarvis,high,auid-3d11e6940e3c114b,3D
JVASP-62634,B6 Co12 Pr1,0.0089,0.0163,0.007399999999999999,jarvis_3d,jarvis,high,auid-48b5e2b1f0449fa4,3D
JVASP-62645,B1 C7,0.0018,0.0081,0.0063,jarvis_3d,jarvis,high,auid-4d13f06b9fe563ef,3D
JVASP-62662,Na4 B4 H32 N8,5.3877,7.5438,2.1561000000000003,jarvis_3d,jarvis,high,auid-557a13fe4fdbe60e,3D
JVASP-62678,B6 O9,6.5409,9.1884,2.6475,jarvis_3d,jarvis,high,auid-5d748f5a07ca112b,3D
JVASP-62681,B2 N2,4.4593,6.1144,1.6551,jarvis_3d,jarvis,high,auid-5dd7b5b33c867cbe,3D
JVASP-62683,B6 S12 Tl6,1.6979,2.6394,0.9415000000000002,jarvis_3d,jarvis,high,auid-5fc27ec2c2c009c9,3D
JVASP-62711,Dy1 B6,0.0131,0.0232,0.010099999999999998,jarvis_3d,jarvis,high,auid-71c6ada23823af1a,3D
JVASP-62724,B2 S4 N4 O2 F14,5.3135,7.1459,1.8323999999999998,jarvis_3d,jarvis,high,auid-792431e0088c473d,3D
JVASP-62735,Ca4 B4 H4 O12,5.2983,7.5897,2.2913999999999994,jarvis_3d,jarvis,high,auid-7e80e02a348399d9,3D
JVASP-62756,B2 N2,4.46,6.1153,1.6553000000000004,jarvis_3d,jarvis,high,auid-8837be380d7be0fd,3D
JVASP-62771,Mg1 B2 H8,6.0502,7.958,1.9078,jarvis_3d,jarvis,high,auid-8f0e30312785be9b,3D
JVASP-62778,B2 N2,4.4596,6.1143,1.6547,jarvis_3d,jarvis,high,auid-92e9abed90449e0f,3D
JVASP-62790,B6 N12 Nd6,2.2017,3.1311,0.9293999999999998,jarvis_3d,jarvis,high,auid-99c443f9b72fbe7f,3D
JVASP-62801,Co4 B4 O10,0.0021,0.0036,0.0015,jarvis_3d,jarvis,high,auid-a24e731fda2c64b3,3D
JVASP-62807,B6 Co12 Tb1,0.001,0.002,0.001,jarvis_3d,jarvis,high,auid-a6925b6045973ef8,3D
JVASP-62814,B6 Ba2 Cd1 O12,4.6611,6.7285,2.0674,jarvis_3d,jarvis,high,auid-aadb37c0874c4cb9,3D
JVASP-62827,Mg2 B4 H16,5.9285,8.3523,2.4238,jarvis_3d,jarvis,high,auid-b5460f89684f8388,3D
JVASP-62838,Dy4 V4 B16,0.0006,0.0075,0.0069,jarvis_3d,jarvis,high,auid-be1dd8e30cf4cc5c,3D
JVASP-62848,Sr4 Cu2 B4 O12,3.1264,4.573,1.4466000000000006,jarvis_3d,jarvis,high,auid-c5b59f4f5d3ed1f3,3D
JVASP-62854,Mg2 B4 H16,6.0227,8.4535,2.4307999999999996,jarvis_3d,jarvis,high,auid-c978e99d27550cde,3D
JVASP-62866,Al2 B2 O7 Sr1,4.7262,7.3878,2.6616,jarvis_3d,jarvis,high,auid-d357ec5bdf72cea1,3D
JVASP-62895,B6 Na6 O18 Sc4,3.678,5.2288,1.5507999999999997,jarvis_3d,jarvis,high,auid-e6656db8689e44cd,3D
JVASP-62899,B2 C6 K4 N6,2.439,3.0112,0.5722,jarvis_3d,jarvis,high,auid-e808a9f7f78da3fd,3D
JVASP-62904,Cd6 B4 O12,1.6482,3.5781,1.9299,jarvis_3d,jarvis,high,auid-e8b85ad4a6f08fec,3D
JVASP-62906,B4 N4,1.6133,3.2382,1.6249,jarvis_3d,jarvis,high,auid-e9b1b839c274d61e,3D
JVASP-62909,Dy1 B6,0.0131,0.0232,0.010099999999999998,jarvis_3d,jarvis,high,auid-ea89b3a71b387869,3D
JVASP-62936,B12 H24 N12,4.9448,6.1722,1.2274000000000003,jarvis_3d,jarvis,high,auid-f7d44cbaac8493b6,3D
JVASP-62940,B2 N2,4.4595,6.1143,1.6547999999999998,jarvis_3d,jarvis,high,auid-f98a034b18ff62b3,3D
JVASP-62970,K2 Li4 As2,0.8892,2.0717,1.1824999999999999,jarvis_3d,jarvis,high,auid-046c832aa3c3244d,3D
JVASP-62975,B2 N2,4.4597,6.1145,1.6547999999999998,jarvis_3d,jarvis,high,auid-04d532270efb670f,3D
JVASP-62986,Au2 Nd2 Sn2,0.0101,0.0445,0.0344,jarvis_3d,jarvis,high,auid-08dd2246a2026905,3D
JVASP-62988,Fe4 Te4 As4,0.0416,0.4302,0.38860000000000006,jarvis_3d,jarvis,high,auid-0a2125b43725e77d,3D
JVASP-62989,B1 Be2 F2 K1 O3,6.5561,9.8315,3.2754000000000003,jarvis_3d,jarvis,high,auid-0a2b89292fd6410c,3D
JVASP-62993,Li12 Au4 O12,2.017,2.4191,0.4020999999999999,jarvis_3d,jarvis,high,auid-0bde856b45e751cc,3D
JVASP-63006,Mg2 B4 C4,1.4452,2.4041,0.9589000000000001,jarvis_3d,jarvis,high,auid-0fc1a2c065a1a1af,3D
JVASP-63056,B4 Ca2 H16,5.0214,6.9321,1.9107000000000003,jarvis_3d,jarvis,high,auid-1f104e2f24efa89a,3D
JVASP-63107,Yb2 Bi2 Au2,0.0259,0.0503,0.024399999999999998,jarvis_3d,jarvis,high,auid-2c98a3a5bc405137,3D
JVASP-63114,B4 H16 Mg2,6.1607,10.246,4.0853,jarvis_3d,jarvis,high,auid-2f6a0ba43d825bd3,3D
JVASP-63127,Cr2 B8,0.0037,0.0361,0.0324,jarvis_3d,jarvis,high,auid-32ca0a12b5f25e59,3D
JVASP-63137,As2 Ca1 Ga2,0.0531,0.5166,0.46349999999999997,jarvis_3d,jarvis,high,auid-356731382f7a33f1,3D
JVASP-63205,Ca1 As2 O6,3.4789,4.8145,1.3356,jarvis_3d,jarvis,high,auid-4c6d3fb5693f5676,3D
JVASP-63210,B4 N4,3.7373,5.2398,1.5025,jarvis_3d,jarvis,high,auid-4d4dc2b0193e01e5,3D
JVASP-63216,Li6 As2,0.7639,1.1078,0.3438999999999999,jarvis_3d,jarvis,high,auid-4f67048a27a86efd,3D
JVASP-63235,B6 O9,6.541,9.1884,2.6473999999999993,jarvis_3d,jarvis,high,auid-56800889451c7945,3D
JVASP-63285,Ag2 As2 K4,1.2869,2.0874,0.8005000000000002,jarvis_3d,jarvis,high,auid-61e20f2f6accbddd,3D
JVASP-63287,B4 Ca2 H16,5.1009,6.7212,1.6202999999999994,jarvis_3d,jarvis,high,auid-6294a82f3fedd54f,3D
JVASP-63295,As12 Os4 Th1,0.1326,0.5252,0.3926,jarvis_3d,jarvis,high,auid-64fe7bb3f42e5ce7,3D
JVASP-63306,Be4 B8 C8,0.2371,1.3112,1.0740999999999998,jarvis_3d,jarvis,high,auid-6975681558eb6cdc,3D
JVASP-63350,B2 Co2 Er1,0.0067,0.0073,0.0005999999999999998,jarvis_3d,jarvis,high,auid-75438246a732a103,3D
JVASP-63377,B4 N4,5.2985,6.6485,1.3500000000000005,jarvis_3d,jarvis,high,auid-7b7f919191e3fb3c,3D
JVASP-63427,Au6 Sb8 Tb6,0.1341,0.6482,0.5141,jarvis_3d,jarvis,high,auid-87516c6653025aff,3D
JVASP-63442,Na2 B2 H8,6.4324,8.5169,2.0844999999999994,jarvis_3d,jarvis,high,auid-8a6423b1f506ff98,3D
JVASP-63450,K2 Au2 Se4,0.8583,1.5046,0.6463,jarvis_3d,jarvis,high,auid-8c5011c882aac59e,3D
JVASP-63459,K12 As4 S12,2.5723,4.0076,1.4353000000000002,jarvis_3d,jarvis,high,auid-912cd1cff7b1044b,3D
JVASP-63485,Ag6 As2 S8,0.3136,1.5417,1.2281,jarvis_3d,jarvis,high,auid-9886dac17c429525,3D
JVASP-63504,Au1 F6 K1,1.9988,2.1403,0.14149999999999996,jarvis_3d,jarvis,high,auid-9dd4d8c3ac2dc991,3D
JVASP-63601,Ca2 B4 H16,5.1067,6.6394,1.5327000000000002,jarvis_3d,jarvis,high,auid-b419c0fccc0fe176,3D
JVASP-63690,B3 N3,4.28,5.8006,1.5206,jarvis_3d,jarvis,high,auid-cd22e0d75d9681c1,3D
JVASP-63714,Tb4 Cr4 B16,0.0005,0.0086,0.0081,jarvis_3d,jarvis,high,auid-d49713b60138f075,3D
JVASP-63743,B2 N2,3.6551,5.3365,1.6814,jarvis_3d,jarvis,high,auid-de6b922183f26702,3D
JVASP-63760,B2 N2 U2,0.0052,0.0064,0.0012000000000000005,jarvis_3d,jarvis,high,auid-e225b8f63e3da497,3D
JVASP-63813,Au2 Bi2 Na4,0.0283,0.9523,0.924,jarvis_3d,jarvis,high,auid-ec951e12343e42b6,3D
JVASP-63878,B6 O9,6.5453,9.1821,2.6368,jarvis_3d,jarvis,high,auid-fd08ab47e8b4714c,3D
JVASP-63879,B4 Ca2 H16,4.801,6.5678,1.7668,jarvis_3d,jarvis,high,auid-fdbae04298e334a8,3D
JVASP-60308,Sb2 As2 O6,2.2826,4.347,2.0644000000000005,jarvis_2d,jarvis,high,mp-28109,2D
JVASP-60389,Te6 Cr2 Ge2,0.5289,0.0203,-0.5086,jarvis_2d,jarvis,high,mp-541449,2D
JVASP-14420,Nb4 Se8 Br8,1.1027,1.224,0.12129999999999996,jarvis_2d,jarvis,high,mp-569623,2D
JVASP-14421,Zr2 Br2 N2,1.9056,2.123,0.21740000000000026,jarvis_2d,jarvis,high,mp-570157,2D
JVASP-60467,Br6 In2,2.8824,3.4241,0.5417000000000001,jarvis_2d,jarvis,high,mp-570219,2D
JVASP-60549,Bi4 Br12,2.998,3.4053,0.4072999999999998,jarvis_2d,jarvis,high,mp-752602,2D
JVASP-60589,Ni1 Te1 O4,0.0161,0.0051,-0.011,jarvis_2d,jarvis,high,mp-774160,2D
JVASP-60249,O8 Te4,2.0905,3.3201,1.2296,jarvis_2d,jarvis,high,mp-2125,2D
JVASP-27915,Te8 O18,2.6803,2.9786,0.29830000000000023,jarvis_2d,jarvis,high,mp-27127,2D
JVASP-27920,Ni1 I2,0.025,0.0031,-0.021900000000000003,jarvis_2d,jarvis,high,mp-27638,2D
JVASP-60332,Ce2 I2 Si2,0.0522,0.0009,-0.051300000000000005,jarvis_2d,jarvis,high,mp-29535,2D
JVASP-28046,Sc4 I4 O4,1.9939,1.8598,-0.1341000000000001,jarvis_2d,jarvis,high,mp-559760,2D
JVASP-60464,Bi1 Cu1 P2 Se6,0.8731,1.2395,0.36640000000000006,jarvis_2d,jarvis,high,mp-569715,2D
JVASP-60475,B2 Ba1 Se6,0.0583,0.1513,0.093,jarvis_2d,jarvis,high,mp-570823,2D
JVASP-60530,Ge1 I2 Y2,0.1908,0.0644,-0.1264,jarvis_2d,jarvis,high,mp-676315,2D
JVASP-60545,Al2 O11 Si4,4.4611,5.4502,0.9890999999999996,jarvis_2d,jarvis,high,mp-707135,2D
JVASP-60558,Br6 Y2,4.0673,4.1728,0.10549999999999926,jarvis_2d,jarvis,high,mp-754815,2D
JVASP-60578,Cr1 P2 S7,0.0419,0.0256,-0.0163,jarvis_2d,jarvis,high,mp-768680,2D
JVASP-60582,Co1 Te1 O4,0.0076,0.0282,0.0206,jarvis_2d,jarvis,high,mp-771247,2D
JVASP-60289,Ca2 Cl2 F2,2.1852,6.2266,4.0414,jarvis_2d,jarvis,high,mp-27546,2D
JVASP-60457,Br2 Cd1,3.2484,3.8447,0.5962999999999998,jarvis_2d,jarvis,high,mp-568722,2D
JVASP-19579,Ba2 S4 Zr1,0.5558,0.7251,0.1693,jarvis_2d,jarvis,high,mp-3813,2D
JVASP-60595,Ga2 Ge2 Te2,0.5378,1.4241,0.8863,jarvis_2d,jarvis,high,mp-8211,2D
JVASP-28296,Sn1 O2,2.6399,3.0525,0.4126000000000003,jarvis_2d,jarvis,high,mvc-11686,2D
JVASP-60251,In2 Se2,1.7152,2.4046,0.6893999999999998,jarvis_2d,jarvis,high,mp-21405,2D
JVASP-60264,Tb2 Cl6,3.909,4.0538,0.14480000000000004,jarvis_2d,jarvis,high,mp-23293,2D
JVASP-27928,Np1 O2 F2,0.107,0.0247,-0.0823,jarvis_2d,jarvis,high,mp-27986,2D
JVASP-19557,Pt1 S2 Cl6,1.7775,2.1596,0.3821000000000001,jarvis_2d,jarvis,high,mp-28722,2D
JVASP-27957,Mg2 H2 O3,2.5227,4.0234,1.5006999999999997,jarvis_2d,jarvis,high,mp-30244,2D
JVASP-60360,Bi1 Br1 Te1,1.6457,2.0203,0.37460000000000027,jarvis_2d,jarvis,high,mp-33723,2D
JVASP-28028,Nb2 I2 O4,0.8725,0.917,0.044499999999999984,jarvis_2d,jarvis,high,mp-557685,2D
JVASP-60413,I2 Np2 O2,0.0342,0.0018,-0.0324,jarvis_2d,jarvis,high,mp-556939,2D
JVASP-28006,Th4 Te8 I8,1.4611,1.7114,0.25029999999999997,jarvis_2d,jarvis,high,mp-542180,2D
JVASP-60402,Cl2 O2 Y2,4.4197,4.8202,0.4005000000000001,jarvis_2d,jarvis,high,mp-552120,2D
JVASP-60403,Sr2 Bi2 Br2 O4,1.8057,4.7519,2.9462,jarvis_2d,jarvis,high,mp-552234,2D
JVASP-28000,Sm2 S2 I2,2.6789,2.8706,0.19169999999999998,jarvis_2d,jarvis,high,mp-541073,2D
JVASP-20007,Cl2 Mg1,3.62,6.8543,3.2343,jarvis_2d,jarvis,high,mp-23210,2D
JVASP-13616,As1 Cl5,1.5843,2.0451,0.4608000000000001,jarvis_2d,jarvis,high,mp-30106,2D
JVASP-60349,Br7 S1 Ta3,0.8812,0.9761,0.09489999999999998,jarvis_2d,jarvis,high,mp-31015,2D
JVASP-60594,B1 N1,4.4818,5.9168,1.4350000000000005,jarvis_2d,jarvis,high,mp-7991,2D
JVASP-60607,Al2 Te5,1.3698,1.6588,0.28900000000000015,jarvis_2d,jarvis,high,mp-9254,2D
JVASP-60776,In2 S2,0.0674,0.0313,-0.0361,jarvis_2d,jarvis,high,mp-19795,2D
JVASP-60262,Bi4 O6,1.6031,3.7173,2.1142,jarvis_2d,jarvis,high,mp-23262,2D
JVASP-60300,Nd2 Br6,1.6259,3.2056,1.5797,jarvis_2d,jarvis,high,mp-27975,2D
JVASP-27891,Zr2 I2 N2,1.425,1.8691,0.44409999999999994,jarvis_2d,jarvis,high,mp-23052,2D
JVASP-27958,Mg1 H2 O2,3.1522,4.7308,1.5786000000000002,jarvis_2d,jarvis,high,mp-30247,2D
JVASP-27862,As2,1.6152,2.179,0.5637999999999999,jarvis_2d,jarvis,high,mp-11,2D
JVASP-27950,P2 Pd3 S8,1.8107,1.7595,-0.05119999999999991,jarvis_2d,jarvis,high,mp-3006,2D
JVASP-60363,Sb2 P2 O8,4.4647,5.1075,0.6428000000000003,jarvis_2d,jarvis,high,mp-3439,2D
JVASP-60259,Pr4 Br10,0.4879,0.4042,-0.0837,jarvis_2d,jarvis,high,mp-23169,2D
JVASP-27899,Zr1 P2 H2 O6,4.3968,4.6884,0.29159999999999986,jarvis_2d,jarvis,high,mp-24030,2D
JVASP-60279,Nb1 S2,0.0796,0.0614,-0.0182,jarvis_2d,jarvis,high,mp-2648,2D
JVASP-60361,N2 Te2 U2,0.0109,0.0092,-0.0017000000000000001,jarvis_2d,jarvis,high,mp-3402,2D
JVASP-27864,Ti2 Te2 P1,0.0521,0.0268,-0.0253,jarvis_2d,jarvis,high,mp-12527,2D
JVASP-28291,Co1 S2,0.0872,0.0008,-0.0864,jarvis_2d,jarvis,high,mvc-11233,2D
JVASP-60294,I2 N2 U2,0.0136,0.0046,-0.009,jarvis_2d,jarvis,high,mp-27763,2D
JVASP-27865,Y2 C1,0.014,0.008,-0.006,jarvis_2d,jarvis,high,mp-1334,2D
JVASP-60237,Au1 Te2,0.0208,0.0077,-0.013099999999999999,jarvis_2d,jarvis,high,mp-1662,2D
JVASP-19549,Li4 Bi4 O8,2.3902,3.449,1.0587999999999997,jarvis_2d,jarvis,high,mp-28253,2D
JVASP-60320,Sr2 Bi4 O8,1.2161,3.5402,2.3241,jarvis_2d,jarvis,high,mp-29048,2D
JVASP-60356,Sn1 P7 Au3,0.0389,0.0495,0.010600000000000005,jarvis_2d,jarvis,high,mp-3245,2D
JVASP-60295,Nb3 Br8,0.7666,0.7147,-0.051899999999999946,jarvis_2d,jarvis,high,mp-27771,2D
JVASP-60510,Sr2 Al4 Cl16,2.8282,6.5395,3.7113000000000005,jarvis_2d,jarvis,high,mp-628726,2D
JVASP-60254,Cu1 In1 P2 Se6,0.3357,0.8339,0.4982,jarvis_2d,jarvis,high,mp-22449,2D
JVASP-20053,Co4 Nb4 Te8,0.0356,0.0148,-0.0208,jarvis_2d,jarvis,high,mp-5603,2D
JVASP-60596,Pd1 S6 Ta2,0.0319,0.0419,0.010000000000000002,jarvis_2d,jarvis,high,mp-8435,2D
JVASP-60293,Pd4 I8,1.1516,1.2593,0.10770000000000013,jarvis_2d,jarvis,high,mp-27747,2D
JVASP-27841,Ho2 S2 I2,2.0992,3.1412,1.0419999999999998,jarvis_2d,jarvis,high,mp-1018731,2D
JVASP-27847,Si4 S4,0.1563,0.9499,0.7936,jarvis_2d,jarvis,high,mp-1023900,2D
JVASP-27849,Tb2 Ga2 I2,0.0775,0.0478,-0.029699999999999997,jarvis_2d,jarvis,high,mp-1025099,2D
JVASP-27856,Lu2 Te6,0.0136,0.0043,-0.0093,jarvis_2d,jarvis,high,mp-1025470,2D
JVASP-27859,Th2 Te6,0.6651,1.4936,0.8285,jarvis_2d,jarvis,high,mp-1025522,2D
JVASP-60337,Ag3 Sn1 P7,0.0051,0.4411,0.436,jarvis_2d,jarvis,high,mp-29849,2D
JVASP-60385,I2 Pb1,2.6378,3.0067,0.3689,jarvis_2d,jarvis,high,mp-540789,2D
JVASP-27999,Y2 Cl2,0.6265,0.0532,-0.5732999999999999,jarvis_2d,jarvis,high,mp-540884,2D
JVASP-60390,Br4 Nb2 Se4,1.1024,1.2041,0.1016999999999999,jarvis_2d,jarvis,high,mp-541667,2D
JVASP-60426,Nb2 P4 S16,1.3572,1.7401,0.3829,jarvis_2d,jarvis,high,mp-559923,2D
JVASP-60442,I2 Pb1,1.6577,2.9299,1.2722,jarvis_2d,jarvis,high,mp-567503,2D
JVASP-60447,I7 Nb3 Te1,0.0254,0.6505,0.6251,jarvis_2d,jarvis,high,mp-567713,2D
JVASP-60452,Ga2 Se2,1.8666,2.3005,0.43389999999999995,jarvis_2d,jarvis,high,mp-568263,2D
JVASP-60453,Br2 Hf2 N2,2.0632,2.412,0.3487999999999998,jarvis_2d,jarvis,high,mp-568346,2D
JVASP-28065,Ag1 Bi1 P2 Se6,1.4514,1.9763,0.5248999999999999,jarvis_2d,jarvis,high,mp-569126,2D
JVASP-60460,Bi2 I6,2.548,2.8618,0.3138000000000001,jarvis_2d,jarvis,high,mp-569157,2D
JVASP-28071,Er2 Te6,0.0025,0.0121,0.0096,jarvis_2d,jarvis,high,mp-569701,2D
JVASP-60469,I2 Yb1,3.9359,4.8105,0.8746,jarvis_2d,jarvis,high,mp-570418,2D
JVASP-60470,I4 Zr2,0.027,0.3575,0.33049999999999996,jarvis_2d,jarvis,high,mp-570506,2D
JVASP-28080,Bi2 Pb2 Se5,0.9308,1.0645,0.13370000000000004,jarvis_2d,jarvis,high,mp-570930,2D
JVASP-60479,Br6 Ti2,0.0599,0.005,-0.054900000000000004,jarvis_2d,jarvis,high,mp-571065,2D
JVASP-60495,I2 N2 Zr2,0.8132,0.9576,0.14439999999999997,jarvis_2d,jarvis,high,mp-580886,2D
JVASP-28095,Pb4 O6,1.846,1.9857,0.13969999999999994,jarvis_2d,jarvis,high,mp-608439,2D
JVASP-60504,H2 O4 Sc2,3.9076,4.4571,0.5494999999999997,jarvis_2d,jarvis,high,mp-625150,2D
JVASP-60505,Al2 H6 O6,1.9708,5.8433,3.8725,jarvis_2d,jarvis,high,mp-625316,2D
JVASP-60507,Te2 H4 O8,2.0559,2.3121,0.2562000000000002,jarvis_2d,jarvis,high,mp-625526,2D
JVASP-28112,Cd1 In1 Ga1 S4,0.5432,1.0032,0.4600000000000001,jarvis_2d,jarvis,high,mp-630773,2D
JVASP-28115,Tb2 H4 Br2,1.8924,2.2284,0.3360000000000001,jarvis_2d,jarvis,high,mp-642807,2D
JVASP-60526,I2 Pb1,2.6385,3.0141,0.37559999999999993,jarvis_2d,jarvis,high,mp-672671,2D
JVASP-28127,Bi2 Pb1 Se4,1.005,1.1393,0.13430000000000009,jarvis_2d,jarvis,high,mp-675543,2D
JVASP-28130,Bi2 Te4 Pb1,1.0772,1.2676,0.19040000000000012,jarvis_2d,jarvis,high,mp-676250,2D