material_id,formula,pbe_bandgap,hse_bandgap,bandgap_correction,dataset,data_source,confidence,mpid,dimensionality
JVASP-1468,C1 N2 Ca1,3.6529,5.1268,1.4739000000000004,jarvis_3d,jarvis,high,mp-4124,3D
JVASP-1975,P1 Ca2 I1,1.6024,2.1487,0.5462999999999998,jarvis_3d,jarvis,high,mp-23040,3D
JVASP-3954,S4 Br4,1.7101,2.6384,0.9282999999999999,jarvis_3d,jarvis,high,mp-28099,3D
JVASP-2667,Al2 Zn1 Te4,1.6985,2.4753,0.7767999999999999,jarvis_3d,jarvis,high,mp-7908,3D
JVASP-3828,Cl6 K2 Tc1,1.89,2.0146,0.12460000000000027,jarvis_3d,jarvis,high,mp-27632,3D
JVASP-2292,Ba1 Zr1 O3,3.2505,3.8412,0.5907,jarvis_3d,jarvis,high,mp-3834,3D
JVASP-4008,O1 K4 Br2,1.0019,2.8926,1.8906999999999998,jarvis_3d,jarvis,high,mp-28627,3D
JVASP-3852,F5 Bi1,1.5891,2.2955,0.7064000000000001,jarvis_3d,jarvis,high,mp-27743,3D
JVASP-3678,Cl6 Rb2 Pb1,0.9023,2.0191,1.1168,jarvis_3d,jarvis,high,mp-23475,3D
JVASP-3543,Ba2 I2 F2,4.0374,4.9939,0.9565000000000001,jarvis_3d,jarvis,high,mp-22951,3D
JVASP-1285,O2 Ba1,2.3271,3.7408,1.4137,jarvis_3d,jarvis,high,mp-1105,3D
JVASP-3195,Nd2 Se2 F2,1.0373,1.8284,0.7910999999999999,jarvis_3d,jarvis,high,mp-12620,3D
JVASP-3861,Sm2 Cl2 O2,4.8632,6.0163,1.1531000000000002,jarvis_3d,jarvis,high,mp-27823,3D
JVASP-4002,O1 Na4 Br2,2.1903,3.7503,1.56,jarvis_3d,jarvis,high,mp-28599,3D
JVASP-3885,Pt1 Tl2 Cl6,1.6305,2.1189,0.48839999999999995,jarvis_3d,jarvis,high,mp-27834,3D
JVASP-1501,K1 Te2 Pr1,1.2649,1.7814,0.5165000000000002,jarvis_3d,jarvis,high,mp-5273,3D
JVASP-3957,Rb2 I6 Pt1,0.2385,1.1017,0.8632,jarvis_3d,jarvis,high,mp-28110,3D
JVASP-3087,Yb1 Zn2 As2,0.1833,1.3201,1.1368,jarvis_3d,jarvis,high,mp-10314,3D
JVASP-3351,Rb2 Y2 Te4,1.3814,1.7502,0.3688,jarvis_3d,jarvis,high,mp-16764,3D
JVASP-3966,K3 Br1 O1,1.0169,3.2103,2.1934000000000005,jarvis_3d,jarvis,high,mp-28166,3D
JVASP-4089,O4 Rb2 Bi2,2.1921,3.5618,1.3697,jarvis_3d,jarvis,high,mp-29521,3D
JVASP-2559,K2 Cu2 Se2,0.3672,1.7573,1.3901000000000001,jarvis_3d,jarvis,high,mp-7435,3D
JVASP-3798,Na1 Bi1 F6,2.5476,3.435,0.8874,jarvis_3d,jarvis,high,mp-27420,3D
JVASP-1345,Te1 Yb1,1.4863,2.5452,1.0589,jarvis_3d,jarvis,high,mp-1779,3D
JVASP-2832,F6 Pd1 Pt1,1.1769,1.3825,0.2056,jarvis_3d,jarvis,high,mp-8547,3D
JVASP-3054,Rb2 Ca2 As2,1.5137,2.5304,1.0167000000000002,jarvis_3d,jarvis,high,mp-9845,3D
JVASP-1780,In2 Li1 Rh1,0.021,0.034,0.013000000000000001,jarvis_3d,jarvis,high,mp-13396,3D
JVASP-3513,Yb2 Br4,4.7496,6.6651,1.9154999999999998,jarvis_3d,jarvis,high,mp-22882,3D
JVASP-3774,Mg1 Cl4 K2,5.1035,7.5615,2.4579999999999993,jarvis_3d,jarvis,high,mp-27207,3D
JVASP-1525,O2 Ca1 Hg1,2.3233,3.2018,0.8784999999999998,jarvis_3d,jarvis,high,mp-7041,3D
JVASP-1294,Se1 Ba1,1.9689,2.8512,0.8822999999999999,jarvis_3d,jarvis,high,mp-1253,3D
JVASP-1198,Zn1 Te1,1.0565,2.2333,1.1767999999999998,jarvis_3d,jarvis,high,mp-2176,3D
JVASP-3723,Sr2 H2 Cl2 O2,5.2065,7.4445,2.2379999999999995,jarvis_3d,jarvis,high,mp-24066,3D
JVASP-2901,S2 Rb2 Au2,2.1728,3.313,1.1402,jarvis_3d,jarvis,high,mp-9010,3D
JVASP-3810,Cl6 Y2,4.4457,5.2828,0.8370999999999995,jarvis_3d,jarvis,high,mp-27455,3D
JVASP-1330,Be2 C1,1.4915,1.7772,0.28569999999999984,jarvis_3d,jarvis,high,mp-1569,3D
JVASP-3369,O4 K3 Mn1,1.0004,1.0252,0.024799999999999933,jarvis_3d,jarvis,high,mp-19140,3D
JVASP-2253,Tm2 S1 O2,3.2076,4.7331,1.5255000000000005,jarvis_3d,jarvis,high,mp-3556,3D
JVASP-3636,As2 I6,2.0162,2.4218,0.4056000000000002,jarvis_3d,jarvis,high,mp-23218,3D
JVASP-1321,Be1 Se1,2.8476,3.8845,1.0369000000000002,jarvis_3d,jarvis,high,mp-1541,3D
JVASP-1279,N1 Lu1,0.3518,1.4044,1.0526,jarvis_3d,jarvis,high,mp-1102,3D
JVASP-2556,Ca1 Cd2 Sb2,0.3283,0.7271,0.3988,jarvis_3d,jarvis,high,mp-7430,3D
JVASP-2820,K2 Li2 S2,3.3471,4.889,1.5419,jarvis_3d,jarvis,high,mp-8430,3D
JVASP-2433,O1 P2 Ca4,1.2688,1.9559,0.6871,jarvis_3d,jarvis,high,mp-5380,3D
JVASP-3930,K5 Cu1 Sb2,0.9763,1.8813,0.905,jarvis_3d,jarvis,high,mp-27999,3D
JVASP-2646,N4 Ca2 Ge2,2.8928,4.299,1.4062000000000006,jarvis_3d,jarvis,high,mp-7801,3D
JVASP-2943,Ta1 Cu3 Te4,1.3085,1.5513,0.2427999999999999,jarvis_3d,jarvis,high,mp-9295,3D
JVASP-3876,Cl6 Rb2 Zr1,3.488,3.9996,0.5116,jarvis_3d,jarvis,high,mp-27831,3D
JVASP-3075,Li2 Zn2 Sb2,0.0648,0.9981,0.9333,jarvis_3d,jarvis,high,mp-9919,3D
JVASP-3297,K3 As2 Ag3,1.186,1.7442,0.5582,jarvis_3d,jarvis,high,mp-14206,3D
JVASP-1174,Ga1 As1,0.7514,1.3207,0.5693,jarvis_3d,jarvis,high,mp-2534,3D
JVASP-3735,Ca2 H2 Br2,3.9599,4.9646,1.0046999999999997,jarvis_3d,jarvis,high,mp-24422,3D
JVASP-1825,Li1 S2 Ho1,1.9934,2.7276,0.7341999999999997,jarvis_3d,jarvis,high,mp-15790,3D
JVASP-3033,Se2 Rb2 Au2,1.9664,2.9361,0.9697000000000002,jarvis_3d,jarvis,high,mp-9731,3D
JVASP-3231,Ba2 Li2 P2,0.9774,1.607,0.6295999999999999,jarvis_3d,jarvis,high,mp-13277,3D
JVASP-2367,Si2 P4 Cd2,1.4611,2.0167,0.5556000000000001,jarvis_3d,jarvis,high,mp-4666,3D
JVASP-3951,Pd1 Rb2 Br6,0.102,1.3433,1.2412999999999998,jarvis_3d,jarvis,high,mp-28084,3D
JVASP-1600,O2 K1 Y1,4.1423,5.6703,1.5280000000000005,jarvis_3d,jarvis,high,mp-8409,3D
JVASP-3621,Bi2 Br2 O2,2.2615,3.2106,0.9491,jarvis_3d,jarvis,high,mp-23072,3D
JVASP-3090,Ba2 Hf2 N4,1.2982,2.2405,0.9422999999999999,jarvis_3d,jarvis,high,mp-10322,3D
JVASP-2730,O4 Na2 Nd2,3.7732,5.3772,1.604,jarvis_3d,jarvis,high,mp-8128,3D
JVASP-3726,Ca2 H2 I2,3.6163,4.2382,0.6219000000000001,jarvis_3d,jarvis,high,mp-24204,3D
JVASP-3450,Ti1 Pb1 O3,1.8124,1.8755,0.06309999999999993,jarvis_3d,jarvis,high,mp-20459,3D
JVASP-3789,F6 Ca1 Ti1,4.6129,4.9889,0.37600000000000033,jarvis_3d,jarvis,high,mp-27315,3D
JVASP-4119,Mg1 H2 O2,4.6363,6.7515,2.1151999999999997,jarvis_3d,jarvis,high,mp-30247,3D
JVASP-2346,S4 Ga2 Cd1,2.113,3.7064,1.5934,jarvis_3d,jarvis,high,mp-4452,3D
JVASP-1420,Na2 Te1,2.1367,3.7865,1.6498000000000004,jarvis_3d,jarvis,high,mp-2784,3D
JVASP-1687,Li1 P1 Zn1,1.4703,1.9278,0.4575,jarvis_3d,jarvis,high,mp-10182,3D
JVASP-3630,B2 I6,2.651,3.5368,0.8858000000000001,jarvis_3d,jarvis,high,mp-23189,3D
JVASP-3096,Tl2 Sn1 F6,4.3464,5.0617,0.7153,jarvis_3d,jarvis,high,mp-10401,3D
JVASP-1318,Ca1 Te1,1.559,2.0607,0.5017000000000003,jarvis_3d,jarvis,high,mp-1519,3D
JVASP-2634,Th2 S1 N2,1.7175,2.3784,0.6609,jarvis_3d,jarvis,high,mp-7769,3D
JVASP-3549,O3 K1 Br1,3.7625,4.7787,1.0161999999999995,jarvis_3d,jarvis,high,mp-22958,3D
JVASP-2316,Pr2 S2 F2,1.3288,2.3752,1.0464,jarvis_3d,jarvis,high,mp-3992,3D
JVASP-3141,Yb1 Mg2 Sb2,0.7913,1.2547,0.4633999999999999,jarvis_3d,jarvis,high,mp-10996,3D
JVASP-1705,Se2 Rb1 Pr1,1.8688,2.7827,0.9139000000000002,jarvis_3d,jarvis,high,mp-10778,3D
JVASP-3174,Ca3 P1 N1,0.8206,1.5493,0.7286999999999999,jarvis_3d,jarvis,high,mp-11824,3D
JVASP-2463,Al2 S4 Ag2,1.9764,3.1432,1.1668000000000003,jarvis_3d,jarvis,high,mp-5782,3D
JVASP-3123,Sr2 Ag2 P2,0.0374,0.7476,0.7102,jarvis_3d,jarvis,high,mp-10667,3D
JVASP-1351,S1 Yb1,2.2066,3.4576,1.251,jarvis_3d,jarvis,high,mp-1820,3D
JVASP-1594,O2 K1 Sc1,3.6784,4.9,1.2216000000000005,jarvis_3d,jarvis,high,mp-8188,3D
JVASP-1852,K1 Y1 Te2,1.3247,1.7511,0.4264000000000001,jarvis_3d,jarvis,high,mp-16763,3D
JVASP-2754,Sr1 Cd2 P2,0.7248,1.6267,0.9019,jarvis_3d,jarvis,high,mp-8277,3D
JVASP-3147,Sc2 Ag2 O4,2.2938,3.0115,0.7176999999999998,jarvis_3d,jarvis,high,mp-11022,3D
JVASP-2376,Si2 P4 Zn2,1.4284,2.0265,0.5981000000000001,jarvis_3d,jarvis,high,mp-4763,3D
JVASP-2517,Nd2 Zn2 As2 O2,0.8476,1.6216,0.7739999999999999,jarvis_3d,jarvis,high,mp-7061,3D
JVASP-3228,Sr2 Li2 P2,1.3966,2.0081,0.6115000000000002,jarvis_3d,jarvis,high,mp-13276,3D
JVASP-1207,As4 Cd2,0.051,0.8553,0.8042999999999999,jarvis_3d,jarvis,high,mp-471,3D
JVASP-1333,S1 Ca1,2.3466,3.268,0.9213999999999998,jarvis_3d,jarvis,high,mp-1672,3D
JVASP-3960,Cl6 Rb2 Pd1,1.0907,1.7344,0.6436999999999999,jarvis_3d,jarvis,high,mp-28145,3D
JVASP-1612,Na1 S2 Lu1,2.4321,3.417,0.9848999999999997,jarvis_3d,jarvis,high,mp-9035,3D
JVASP-3594,Sr2 I2 F2,4.5342,5.4437,0.9094999999999995,jarvis_3d,jarvis,high,mp-23046,3D
JVASP-2862,K2 Li2 Se2,2.816,4.4744,1.6584000000000003,jarvis_3d,jarvis,high,mp-8756,3D
JVASP-1516,O2 Rb1 Ho1,3.6781,5.4677,1.7895999999999996,jarvis_3d,jarvis,high,mp-6978,3D
JVASP-2044,Ca2 As1 I1,1.4991,2.0037,0.5045999999999997,jarvis_3d,jarvis,high,mp-28554,3D
JVASP-2829,O4 Na2 Pr2,3.6269,5.2635,1.6365999999999996,jarvis_3d,jarvis,high,mp-8470,3D
JVASP-2664,Al2 Zn1 Se4,2.2926,3.5952,1.3026,jarvis_3d,jarvis,high,mp-7907,3D
JVASP-3384,O2 K2 Ni1,2.7661,3.637,0.8709000000000002,jarvis_3d,jarvis,high,mp-19252,3D
JVASP-3342,Ga2 Te4 Hg1,0.3491,1.5136,1.1645,jarvis_3d,jarvis,high,mp-16337,3D
JVASP-2631,Th2 Se1 N2,1.6756,2.3956,0.72,jarvis_3d,jarvis,high,mp-7768,3D
JVASP-3768,O3 Rb1 I1,2.9297,4.1923,1.2626000000000004,jarvis_3d,jarvis,high,mp-27193,3D
JVASP-1306,O1 Ba1,2.0482,3.4113,1.3631000000000002,jarvis_3d,jarvis,high,mp-1342,3D
JVASP-1795,O2 Rb1 Y1,3.7926,5.2533,1.4607,jarvis_3d,jarvis,high,mp-14437,3D
JVASP-2199,Mg2 Si2 P4,1.4581,2.2358,0.7776999999999998,jarvis_3d,jarvis,high,mp-2961,3D
JVASP-1288,Li2 S1,3.5016,4.2624,0.7608000000000006,jarvis_3d,jarvis,high,mp-1153,3D
JVASP-3603,Nd2 Cl2 O2,4.7207,5.9559,1.2351999999999999,jarvis_3d,jarvis,high,mp-23058,3D
JVASP-4062,Ca3 P1 Cl3,1.7013,2.5639,0.8625999999999998,jarvis_3d,jarvis,high,mp-29342,3D
JVASP-4083,Cl4 F4,2.0923,3.7989,1.7066000000000003,jarvis_3d,jarvis,high,mp-29504,3D
JVASP-3240,F6 Zn1 Pb1,1.8944,2.8509,0.9565000000000001,jarvis_3d,jarvis,high,mp-13610,3D
JVASP-3027,Al2 Ag2 O4,1.6664,2.4001,0.7337,jarvis_3d,jarvis,high,mp-9631,3D
JVASP-2895,Ho2 C1 F2,1.1682,2.1655,0.9973000000000003,jarvis_3d,jarvis,high,mp-9006,3D
JVASP-3006,Ca1 Cd2 P2,0.8327,1.769,0.9362999999999999,jarvis_3d,jarvis,high,mp-9570,3D
JVASP-2355,P4 Zn2 Ge2,1.0535,1.9322,0.8786999999999998,jarvis_3d,jarvis,high,mp-4524,3D
JVASP-1798,Na2 K1 Sb1,0.9198,1.9332,1.0134,jarvis_3d,jarvis,high,mp-15724,3D
JVASP-3261,Er2 Se1 O2,2.327,3.6458,1.3188,jarvis_3d,jarvis,high,mp-13975,3D
JVASP-2077,S2 Dy1 Tl1,1.6517,2.3259,0.6741999999999999,jarvis_3d,jarvis,high,mp-31166,3D
JVASP-1248,Be1 Te1,2.2019,2.8207,0.6187999999999998,jarvis_3d,jarvis,high,mp-252,3D
JVASP-1669,S2 Rb1 Er1,2.3579,3.4694,1.1115,jarvis_3d,jarvis,high,mp-9367,3D
JVASP-3702,Ca2 H2 Cl2,3.8,5.0363,1.2363,jarvis_3d,jarvis,high,mp-23859,3D
JVASP-1783,O2 Cu1 Pr1,2.4216,2.6374,0.21579999999999977,jarvis_3d,jarvis,high,mp-13694,3D
JVASP-3834,K2 Br6 Pt1,1.1131,1.8834,0.7703,jarvis_3d,jarvis,high,mp-27691,3D
JVASP-3204,Ho2 Ag2 Te4,0.8852,1.2773,0.3921000000000001,jarvis_3d,jarvis,high,mp-12904,3D
JVASP-2400,F6 Si1 Tl2,5.04,6.1097,1.0697,jarvis_3d,jarvis,high,mp-5033,3D
JVASP-1972,N1 Cl1 Sr2,1.845,2.9556,1.1106,jarvis_3d,jarvis,high,mp-23033,3D
JVASP-1711,Se2 Rb1 Sm1,1.8695,2.9684,1.0989,jarvis_3d,jarvis,high,mp-10780,3D
JVASP-3492,Rb2 In2 Te4,1.2026,1.8288,0.6262000000000001,jarvis_3d,jarvis,high,mp-22255,3D
JVASP-4071,Cu1 Ga1 I4,1.5226,2.0795,0.5569,jarvis_3d,jarvis,high,mp-29403,3D
JVASP-2550,S4 Ge1 Ag2 Ba1,0.6816,1.8193,1.1377,jarvis_3d,jarvis,high,mp-7394,3D
JVASP-3738,Sr2 H2 Br2,4.0739,5.2321,1.1582,jarvis_3d,jarvis,high,mp-24423,3D
JVASP-1393,P1 Ga1,1.4822,2.3733,0.8911,jarvis_3d,jarvis,high,mp-2490,3D
JVASP-1195,Zn2 O2,0.9654,2.4728,1.5073999999999999,jarvis_3d,jarvis,high,mp-2133,3D
JVASP-2460,O2 F2 Nd2,4.5051,6.1518,1.6467,jarvis_3d,jarvis,high,mp-5634,3D
JVASP-1264,O1 K2,2.0343,5.371,3.3367000000000004,jarvis_3d,jarvis,high,mp-971,3D
JVASP-3063,K2 Se2 Au2,2.0462,3.1169,1.0707,jarvis_3d,jarvis,high,mp-9881,3D
JVASP-1369,N1 Y1,0.3107,1.1697,0.859,jarvis_3d,jarvis,high,mp-2114,3D
JVASP-2523,S2 K2 Au2,2.2957,3.4507,1.1549999999999998,jarvis_3d,jarvis,high,mp-7077,3D
JVASP-3864,Cl6 Ti1 Rb2,2.016,2.5114,0.49540000000000006,jarvis_3d,jarvis,high,mp-27827,3D
JVASP-3198,Er2 Ag2 Te4,0.8973,1.263,0.3656999999999999,jarvis_3d,jarvis,high,mp-12902,3D
JVASP-3324,O2 Te1 Pr2,1.7913,2.4905,0.6992,jarvis_3d,jarvis,high,mp-16032,3D
JVASP-3717,H6 Al2,2.4637,3.7313,1.2676000000000003,jarvis_3d,jarvis,high,mp-23933,3D
JVASP-2196,F4 Sn1,3.1591,5.2665,2.1073999999999997,jarvis_3d,jarvis,high,mp-2706,3D
JVASP-3225,Na3 Sr3 P3,1.4133,1.9896,0.5763,jarvis_3d,jarvis,high,mp-13275,3D
JVASP-3837,In2 Cl2 O2,2.4161,3.959,1.5429,jarvis_3d,jarvis,high,mp-27702,3D
JVASP-3561,O3 I1 Tl1,2.8669,3.3095,0.4426000000000001,jarvis_3d,jarvis,high,mp-22981,3D
JVASP-3246,Ga2 Cd1 Te4,0.9695,1.8768,0.9073,jarvis_3d,jarvis,high,mp-13949,3D
JVASP-2175,Ga2 Te5,0.9558,1.4485,0.4926999999999999,jarvis_3d,jarvis,high,mp-2371,3D
JVASP-3840,In2 Br2 O2,2.0599,3.7317,1.6718000000000002,jarvis_3d,jarvis,high,mp-27703,3D
JVASP-2658,O3 Rb2 Sn2,1.1801,2.4851,1.3050000000000002,jarvis_3d,jarvis,high,mp-7863,3D
JVASP-3306,Si4 P4 Ru1,1.5232,1.7408,0.2175999999999998,jarvis_3d,jarvis,high,mp-14983,3D
JVASP-1267,Te1 Ba1,1.6051,2.1481,0.5429999999999999,jarvis_3d,jarvis,high,mp-1000,3D
JVASP-2673,Al2 Te4 Hg1,1.1155,1.7384,0.6229,jarvis_3d,jarvis,high,mp-7910,3D
JVASP-4023,Dy2 S2 I2,2.5766,3.0872,0.5106000000000002,jarvis_3d,jarvis,high,mp-28929,3D
JVASP-3465,P1 S4 In1,2.3291,3.3999,1.0708000000000002,jarvis_3d,jarvis,high,mp-20790,3D
JVASP-3462,Li2 In2 Te4,1.3541,2.2901,0.9359999999999997,jarvis_3d,jarvis,high,mp-20782,3D
JVASP-1756,Pd1 Sn1 Hf1,0.1117,0.3852,0.27349999999999997,jarvis_3d,jarvis,high,mp-11869,3D
JVASP-1504,N2 Na1 Ta1,1.3296,2.2363,0.9067000000000001,jarvis_3d,jarvis,high,mp-5475,3D
JVASP-3729,Sr2 H2 I2,3.3856,4.138,0.7523999999999997,jarvis_3d,jarvis,high,mp-24205,3D
JVASP-2454,Sm2 S1 O2,3.0431,4.6223,1.5792000000000002,jarvis_3d,jarvis,high,mp-5598,3D
JVASP-2937,K3 Sb2 Au3,1.0098,1.5478,0.538,jarvis_3d,jarvis,high,mp-9273,3D
JVASP-2083,Ru1 Sb1 Ta1,0.8752,1.0638,0.1886000000000001,jarvis_3d,jarvis,high,mp-31454,3D
JVASP-3933,Cl6 Tm2,4.707,6.1697,1.4627,jarvis_3d,jarvis,high,mp-28044,3D
JVASP-3732,Sr2 H6 Ru1,2.1793,2.3836,0.20429999999999993,jarvis_3d,jarvis,high,mp-24292,3D
JVASP-2472,F6 Cd1 Pt1,2.2756,2.6975,0.42189999999999994,jarvis_3d,jarvis,high,mp-5858,3D
JVASP-1963,Bi1 Te1 I1,1.2002,1.6831,0.4829000000000001,jarvis_3d,jarvis,high,mp-22965,3D
JVASP-2337,P4 Zn2 Sn2,0.4006,1.6891,1.2885,jarvis_3d,jarvis,high,mp-4175,3D
JVASP-1618,Na1 S2 Tm1,2.382,3.203,0.8209999999999997,jarvis_3d,jarvis,high,mp-9076,3D
JVASP-3243,O1 Ca4 Sb2,0.9539,1.3325,0.37860000000000005,jarvis_3d,jarvis,high,mp-13660,3D
JVASP-1435,Li1 Al1 Si1,0.1113,0.4828,0.3715,jarvis_3d,jarvis,high,mp-3161,3D
JVASP-1708,Se2 Rb1 Nd1,1.8635,2.8037,0.9402000000000001,jarvis_3d,jarvis,high,mp-10779,3D
JVASP-3372,O2 Ni1 Rb2,2.5657,3.7785,1.2128,jarvis_3d,jarvis,high,mp-19167,3D
JVASP-2262,Sc2 Cu2 O4,2.4683,2.5482,0.07989999999999986,jarvis_3d,jarvis,high,mp-3642,3D
JVASP-2742,N2 F2 Th2,2.5537,3.1865,0.6328,jarvis_3d,jarvis,high,mp-8226,3D
JVASP-1510,Rb1 Te2 Nd1,1.2878,1.8374,0.5495999999999999,jarvis_3d,jarvis,high,mp-5808,3D
JVASP-3978,P4 Pd2,0.0726,0.4997,0.4271,jarvis_3d,jarvis,high,mp-28266,3D
JVASP-1645,C1 N2 Mg1,3.9501,5.1953,1.2451999999999996,jarvis_3d,jarvis,high,mp-9166,3D
JVASP-3417,F6 Ba1 Pb1,2.8492,4.3449,1.4956999999999998,jarvis_3d,jarvis,high,mp-19799,3D
JVASP-3816,P2 I6,1.9722,2.7232,0.7509999999999999,jarvis_3d,jarvis,high,mp-27529,3D
JVASP-4056,Pr2 I2 O2,3.6859,4.7346,1.0487000000000002,jarvis_3d,jarvis,high,mp-29254,3D
JVASP-2739,Rb2 Pt1 F6,2.6122,2.7133,0.10109999999999975,jarvis_3d,jarvis,high,mp-8192,3D
JVASP-1256,F2 Pb1,4.5816,5.7329,1.1513,jarvis_3d,jarvis,high,mp-315,3D
JVASP-4005,Na3 Cl1 O1,2.2608,4.7035,2.4427,jarvis_3d,jarvis,high,mp-28602,3D
JVASP-2922,K3 Au1 O1,0.2386,1.7865,1.5479,jarvis_3d,jarvis,high,mp-9200,3D
JVASP-3339,K2 Ag2 Se2,0.4048,2.0379,1.6331,jarvis_3d,jarvis,high,mp-16236,3D
JVASP-2226,Pr2 S1 O2,2.9751,4.4255,1.4504000000000006,jarvis_3d,jarvis,high,mp-3236,3D
JVASP-2220,Nd2 S1 O2,2.9917,4.4644,1.4727000000000006,jarvis_3d,jarvis,high,mp-3211,3D
JVASP-3057,Rb2 Ca2 Sb2,1.7505,2.3219,0.5713999999999999,jarvis_3d,jarvis,high,mp-9846,3D
JVASP-2166,K4 Te4,0.2786,1.7462,1.4676,jarvis_3d,jarvis,high,mp-2072,3D
JVASP-1585,O2 K1 Tl1,0.9952,2.1529,1.1576999999999997,jarvis_3d,jarvis,high,mp-8175,3D
JVASP-3522,Cl4 Zn2,3.9399,6.2188,2.2788999999999997,jarvis_3d,jarvis,high,mp-22909,3D
JVASP-2475,O2 K2 Hg1,2.2511,3.3782,1.1271,jarvis_3d,jarvis,high,mp-5860,3D
JVASP-3516,Ca2 Br4,4.5495,5.8443,1.2947999999999995,jarvis_3d,jarvis,high,mp-22888,3D
JVASP-2916,Ba2 Cu2 Se2 F2,1.5602,2.0718,0.5116,jarvis_3d,jarvis,high,mp-9195,3D
JVASP-2481,Al2 S4 Cd1,2.8639,4.1709,1.3069999999999995,jarvis_3d,jarvis,high,mp-5928,3D
JVASP-2880,F4 Rb2 Hg1,1.8059,4.0293,2.2234,jarvis_3d,jarvis,high,mp-8962,3D
JVASP-1939,Cl2 Hg2,2.2592,3.2489,0.9897,jarvis_3d,jarvis,high,mp-22897,3D
JVASP-2265,P4 Ge2 Cd2,0.54,1.6455,1.1055,jarvis_3d,jarvis,high,mp-3668,3D
JVASP-2865,O1 Ca4 As2,1.2366,1.795,0.5584,jarvis_3d,jarvis,high,mp-8789,3D
JVASP-4122,Y2 Ag2 O4,2.6986,3.3056,0.6070000000000002,jarvis_3d,jarvis,high,mp-30250,3D
JVASP-1672,S2 Rb1 Tm1,2.3733,3.6581,1.2848000000000002,jarvis_3d,jarvis,high,mp-9368,3D
JVASP-2772,F6 Sn1 Ba1,5.2209,7.4181,2.1971999999999996,jarvis_3d,jarvis,high,mp-8290,3D
JVASP-3801,F6 Rb1 Bi1,2.5237,3.3049,0.7812000000000001,jarvis_3d,jarvis,high,mp-27421,3D
JVASP-2952,S4 Ba2 Hf1,0.9122,1.4278,0.5156,jarvis_3d,jarvis,high,mp-9321,3D
JVASP-1717,Se2 Rb1 Tb1,1.914,2.9602,1.0462,jarvis_3d,jarvis,high,mp-10782,3D
JVASP-3021,F4 K2 Zn1,4.5394,7.1535,2.6141000000000005,jarvis_3d,jarvis,high,mp-9583,3D
JVASP-1924,Br2 In2,1.5558,1.6433,0.08749999999999991,jarvis_3d,jarvis,high,mp-22870,3D
JVASP-3969,K3 I1 O1,1.24,2.7787,1.5387000000000002,jarvis_3d,jarvis,high,mp-28171,3D
JVASP-2967,O2 F2 Sm2,4.6903,6.4225,1.7322000000000006,jarvis_3d,jarvis,high,mp-9488,3D
JVASP-2388,Ba2 Ce2 N4,0.7149,1.1059,0.3910000000000001,jarvis_3d,jarvis,high,mp-4887,3D
JVASP-3579,Pb2 Br2 F2,2.9451,4.142,1.1969000000000003,jarvis_3d,jarvis,high,mp-23008,3D
JVASP-3501,O2 Na2 Pt1,1.6517,2.2863,0.6346000000000003,jarvis_3d,jarvis,high,mp-22313,3D
JVASP-1480,O2 Cu1 Ga1,1.01,1.1719,0.16189999999999993,jarvis_3d,jarvis,high,mp-4280,3D
JVASP-2235,K2 Sn2 As2,0.3247,1.3386,1.0139,jarvis_3d,jarvis,high,mp-3481,3D
JVASP-1933,Cl2 Cd1,3.3382,5.5752,2.2369999999999997,jarvis_3d,jarvis,high,mp-22881,3D
JVASP-1201,Cl1 Cu1,0.4512,1.5812,1.13,jarvis_3d,jarvis,high,mp-22914,3D
JVASP-1771,Tm1 Ag1 Te2,0.7009,1.2571,0.5562000000000001,jarvis_3d,jarvis,high,mp-12953,3D
JVASP-1774,Mg1 Se1,2.782,4.2799,1.4978999999999996,jarvis_3d,jarvis,high,mp-13031,3D
JVASP-3981,P2 K4 Cd1,0.8857,2.2381,1.3524000000000003,jarvis_3d,jarvis,high,mp-28302,3D
JVASP-2868,Rb2 Na2 S2,2.5436,4.5734,2.0298000000000003,jarvis_3d,jarvis,high,mp-8799,3D
JVASP-1540,Al2 Os1,0.0048,0.4122,0.4074,jarvis_3d,jarvis,high,mp-7188,3D
JVASP-2502,F6 In2,4.1955,7.1247,2.9292,jarvis_3d,jarvis,high,mp-6949,3D
JVASP-3207,B2 S4 Cu2,1.8718,2.2021,0.33030000000000026,jarvis_3d,jarvis,high,mp-12954,3D
JVASP-1696,Ba1 Li1 As1,0.1672,1.3701,1.2029,jarvis_3d,jarvis,high,mp-10616,3D
JVASP-1702,S1 Zn1,2.0864,3.5923,1.5059,jarvis_3d,jarvis,high,mp-10695,3D
JVASP-1429,N1 O2 Na1,2.4137,3.8959,1.4822000000000002,jarvis_3d,jarvis,high,mp-2964,3D
JVASP-1300,Mg1 S1,2.9453,4.2555,1.3101999999999996,jarvis_3d,jarvis,high,mp-1315,3D
JVASP-2529,Na2 Mg2 Sb2,1.1722,1.7263,0.5541,jarvis_3d,jarvis,high,mp-7090,3D
JVASP-2997,Sr1 Mg2 Sb2,1.0684,1.4354,0.367,jarvis_3d,jarvis,high,mp-9566,3D
JVASP-2032,P1 Cl1 Ba2,1.0632,1.8389,0.7757000000000001,jarvis_3d,jarvis,high,mp-27869,3D
JVASP-2397,Al2 S4 Cu2,1.8966,2.4907,0.5940999999999999,jarvis_3d,jarvis,high,mp-4979,3D
JVASP-2745,F6 Ca1 Pt1,2.6964,2.783,0.08659999999999979,jarvis_3d,jarvis,high,mp-8255,3D
JVASP-2790,Si3 P4 Ni1,0.0915,0.7445,0.653,jarvis_3d,jarvis,high,mp-8311,3D
JVASP-3117,N4 Na2 P2,4.8658,6.4713,1.6055000000000001,jarvis_3d,jarvis,high,mp-10572,3D
JVASP-1079,Mg2 Ge1,0.1317,0.5764,0.4447,jarvis_3d,jarvis,high,mp-408,3D
JVASP-1130,Li1 F1,9.4806,11.2193,1.7386999999999997,jarvis_3d,jarvis,high,mp-1138,3D
JVASP-1073,Si2 Ge2,0.0501,1.0966,1.0465,jarvis_3d,jarvis,high,mp-978534,3D
JVASP-1076,Mg2 Si1,0.1116,0.6247,0.5131,jarvis_3d,jarvis,high,mp-1367,3D
JVASP-1082,Mg2 Sn1,0.0605,0.0849,0.024400000000000005,jarvis_3d,jarvis,high,mp-2343,3D
JVASP-1091,Zr1 Ni1 Sn1,0.1895,0.5014,0.31189999999999996,jarvis_3d,jarvis,high,mp-924129,3D
JVASP-1121,Se1 Sr1,2.2397,3.1237,0.8839999999999999,jarvis_3d,jarvis,high,mp-2758,3D