material_id,formula,pbe_bandgap,hse_bandgap,bandgap_correction,dataset,data_source,confidence,mpid,dimensionality
JVASP-9412,O6 Al2 Pr2,4.1423,5.1077,0.9654000000000007,jarvis_3d,jarvis,high,mp-3466,3D
JVASP-9414,Zr4 S4 O4,2.448,2.9349,0.4868999999999999,jarvis_3d,jarvis,high,mp-3519,3D
JVASP-9415,O4 Na6 Ag2,1.3504,2.5369,1.1865,jarvis_3d,jarvis,high,mp-3527,3D
JVASP-9422,Al8 Fe4 Er1,0.0034,0.0034,0.0,jarvis_3d,jarvis,high,mp-3633,3D
JVASP-9425,Mg2 Sb4 O12,1.2331,2.1842,0.9511000000000001,jarvis_3d,jarvis,high,mp-3653,3D
JVASP-9427,Mg4 Si4 N8,4.4596,5.4079,0.9482999999999997,jarvis_3d,jarvis,high,mp-3677,3D
JVASP-9432,O10 Ca2 Ge4,2.6178,4.3508,1.7329999999999997,jarvis_3d,jarvis,high,mp-3707,3D
JVASP-9433,O6 Sr2 Hf2,4.1711,5.717,1.5458999999999996,jarvis_3d,jarvis,high,mp-3721,3D
JVASP-9436,O8 Sm2 Ta2,4.0472,5.313,1.2657999999999996,jarvis_3d,jarvis,high,mp-3756,3D
JVASP-9437,O6 Mg2 Ge2,3.9079,5.6609,1.7529999999999997,jarvis_3d,jarvis,high,mp-3759,3D
JVASP-9438,O6 Mg2 Ti2,3.5152,4.0159,0.5007000000000001,jarvis_3d,jarvis,high,mp-3771,3D
JVASP-9443,F12 Cu2 Ba4,4.2903,5.6657,1.3754,jarvis_3d,jarvis,high,mp-3879,3D
JVASP-9445,O8 Nb2 Nd2,3.5243,4.2334,0.7090999999999994,jarvis_3d,jarvis,high,mp-3901,3D
JVASP-9446,O8 Mg4 Ge2,3.2819,5.2151,1.9331999999999998,jarvis_3d,jarvis,high,mp-3904,3D
JVASP-9447,S8 Ag4 Sb4,1.2459,1.7199,0.474,jarvis_3d,jarvis,high,mp-3922,3D
JVASP-9449,N6 Mg4 P2,4.0472,5.1476,1.1003999999999996,jarvis_3d,jarvis,high,mp-3933,3D
JVASP-9459,Ca2 Ti3 O8,2.7435,3.2674,0.5238999999999998,jarvis_3d,jarvis,high,mvc-2955,3D
JVASP-9481,Mg2 Ti2 Si2 O10,2.9371,3.3272,0.3900999999999999,jarvis_3d,jarvis,high,mvc-3091,3D
JVASP-9512,Cr2 Si2 O10,0.7947,1.0475,0.25280000000000014,jarvis_3d,jarvis,high,mvc-3265,3D
JVASP-9519,Mg2 Si2 Ni2 O10,0.0013,0.0017,0.00039999999999999996,jarvis_3d,jarvis,high,mvc-3283,3D
JVASP-9532,Zn2 Co2 F8,1.3725,3.5214,2.1489,jarvis_3d,jarvis,high,mvc-3380,3D
JVASP-9536,Mn2 Zn2 F8,0.0045,0.0137,0.0092,jarvis_3d,jarvis,high,mvc-3477,3D
JVASP-9563,Zn4 Bi4 O10,1.5407,2.4341,0.8934,jarvis_3d,jarvis,high,mvc-3853,3D
JVASP-9573,C2 O6 Ca2,5.1687,6.9049,1.7361999999999993,jarvis_3d,jarvis,high,mp-3953,3D
JVASP-9581,Li4 O6 Zr2,4.0349,4.9819,0.9470000000000001,jarvis_3d,jarvis,high,mp-4156,3D
JVASP-9582,Ta4 N4 O4,2.0082,3.0375,1.0293,jarvis_3d,jarvis,high,mp-4165,3D
JVASP-9583,N4 O2 Ge4,2.701,4.3293,1.6282999999999999,jarvis_3d,jarvis,high,mp-4187,3D
JVASP-9586,O8 P2 Sc2,4.5868,4.861,0.27419999999999956,jarvis_3d,jarvis,high,mp-4200,3D
JVASP-9594,O8 Ho2 Ta2,4.0643,5.3012,1.2368999999999994,jarvis_3d,jarvis,high,mp-4344,3D
JVASP-9595,F6 Na2 Cd2,3.5652,6.9611,3.3959,jarvis_3d,jarvis,high,mp-4360,3D
JVASP-9596,C2 O6 Cd2,2.9861,5.1879,2.2018,jarvis_3d,jarvis,high,mp-4385,3D
JVASP-9598,Na2 Nb2 O6,1.6559,2.309,0.6531000000000002,jarvis_3d,jarvis,high,mp-4419,3D
JVASP-9599,S6 As2 Ag6,1.0559,1.8911,0.8351999999999999,jarvis_3d,jarvis,high,mp-4431,3D
JVASP-9600,Tl3 N3 O6,1.4998,2.4296,0.9298000000000002,jarvis_3d,jarvis,high,mp-4453,3D
JVASP-9602,O6 Na2 Sb2,2.7628,4.1768,1.4140000000000001,jarvis_3d,jarvis,high,mp-4482,3D
JVASP-9604,O6 Na2 Nb2,2.7552,3.297,0.5418000000000003,jarvis_3d,jarvis,high,mp-4514,3D
JVASP-9606,Li8 O6 Sn1,4.1147,5.6512,1.5365000000000002,jarvis_3d,jarvis,high,mp-4527,3D
JVASP-9607,O8 Si2 Cd4,1.6869,3.477,1.7900999999999998,jarvis_3d,jarvis,high,mp-4530,3D
JVASP-9608,N2 O6 Na2,3.0296,4.5122,1.4826000000000001,jarvis_3d,jarvis,high,mp-4531,3D
JVASP-9609,O6 Na4 Si2,4.1469,7.0127,2.8658,jarvis_3d,jarvis,high,mp-4533,3D
JVASP-9610,Na4 C4 O8,3.3296,4.788,1.4584000000000001,jarvis_3d,jarvis,high,mp-4534,3D
JVASP-9612,Li8 O8 Ge2,4.2931,6.3176,2.0244999999999997,jarvis_3d,jarvis,high,mp-4558,3D
JVASP-9615,O8 Mg2 Ga4,3.4099,5.2884,1.8785000000000003,jarvis_3d,jarvis,high,mp-4590,3D
JVASP-9616,B2 O8 Ta2,3.5443,4.6558,1.1115000000000004,jarvis_3d,jarvis,high,mp-4624,3D
JVASP-9621,Sc4 O4 F4,4.4462,5.5033,1.0571000000000002,jarvis_3d,jarvis,high,mp-4661,3D
JVASP-9642,Sb4 O8,1.4397,2.2819,0.8421999999999998,jarvis_3d,jarvis,high,mvc-4245,3D
JVASP-9659,Na2 Ta2 O6,2.3528,3.6695,1.3167000000000004,jarvis_3d,jarvis,high,mp-4675,3D
JVASP-9662,Mg2 Cu4 O8,0.0006,0.0041,0.0035000000000000005,jarvis_3d,jarvis,high,mvc-4609,3D
JVASP-9671,Ca2 Sb4 O8,2.6488,3.6972,1.0484,jarvis_3d,jarvis,high,mvc-4658,3D
JVASP-9674,O8 K3 Ta1,3.2321,4.5973,1.3651999999999997,jarvis_3d,jarvis,high,mp-4690,3D
JVASP-9675,Ag4 C2 O6,0.1972,1.7944,1.5972,jarvis_3d,jarvis,high,mp-4691,3D
JVASP-9677,O8 Nb2 Pr2,3.6203,4.3089,0.6886000000000005,jarvis_3d,jarvis,high,mp-4709,3D
JVASP-9679,O12 Ti4 Th2,3.1428,3.5156,0.37280000000000024,jarvis_3d,jarvis,high,mp-4733,3D
JVASP-9680,Ca4 Sn2 O8,2.8916,4.6613,1.7696999999999998,jarvis_3d,jarvis,high,mp-4747,3D
JVASP-9682,O8 Na4 S2,5.436,8.7096,3.2736,jarvis_3d,jarvis,high,mp-4770,3D
JVASP-9683,O6 Ca2 Pt2,1.3585,1.4503,0.09179999999999988,jarvis_3d,jarvis,high,mp-4784,3D
JVASP-9684,O8 Ge2 Th2,4.0126,4.8762,0.8635999999999999,jarvis_3d,jarvis,high,mp-4790,3D
JVASP-9686,O8 Si2 Zr2,4.7008,5.1919,0.4911000000000003,jarvis_3d,jarvis,high,mp-4820,3D
JVASP-9688,Al4 S8 Zn2,2.6,3.3056,0.7056,jarvis_3d,jarvis,high,mp-4842,3D
JVASP-9692,O10 Al4 Ti2,2.9319,3.4565,0.5246,jarvis_3d,jarvis,high,mp-4930,3D
JVASP-9696,O6 Sr2 Zr2,3.7353,4.3225,0.5871999999999997,jarvis_3d,jarvis,high,mp-5076,3D
JVASP-9698,Na6 Al2 P4,1.4772,2.6171,1.1399000000000001,jarvis_3d,jarvis,high,mp-5122,3D
JVASP-9699,Li4 O4 Cu4,1.5951,1.7333,0.1382000000000001,jarvis_3d,jarvis,high,mp-5127,3D
JVASP-9705,S4 Te4 Re4,0.187,0.5655,0.3785,jarvis_3d,jarvis,high,mp-5222,3D
JVASP-9707,Ag4 C4 O8,2.2747,2.6926,0.41789999999999994,jarvis_3d,jarvis,high,mp-5282,3D
JVASP-9709,F8 K2 Au2,2.3451,2.5306,0.18550000000000022,jarvis_3d,jarvis,high,mp-5309,3D
JVASP-9710,O5 Na4 U1,2.2396,2.3776,0.13800000000000034,jarvis_3d,jarvis,high,mp-5327,3D
JVASP-9711,C2 O6 Mg2,5.2235,7.1473,1.9238000000000008,jarvis_3d,jarvis,high,mp-5348,3D
JVASP-9713,Y2 Ta2 O8,4.0545,5.1963,1.1418,jarvis_3d,jarvis,high,mp-5377,3D
JVASP-9714,O8 Y2 Nb2,3.4819,4.1297,0.6477999999999997,jarvis_3d,jarvis,high,mp-5387,3D
JVASP-9717,O8 Rb3 Ta1,3.2597,4.4985,1.2388,jarvis_3d,jarvis,high,mp-5461,3D
JVASP-9718,P2 S6 Ag2,1.3543,1.8336,0.47929999999999984,jarvis_3d,jarvis,high,mp-5470,3D
JVASP-9721,O8 Er2 Ta2,4.0649,5.304,1.2391000000000005,jarvis_3d,jarvis,high,mp-5503,3D
JVASP-9725,O7 Si2 Sc2,4.325,5.2679,0.9428999999999998,jarvis_3d,jarvis,high,mp-5594,3D
JVASP-9727,O8 S2 Ag4,1.2898,3.1132,1.8234,jarvis_3d,jarvis,high,mp-5625,3D
JVASP-9730,O8 Mg4 Si2,5.3256,6.8501,1.5245000000000006,jarvis_3d,jarvis,high,mp-5639,3D
JVASP-9731,O7 Si2 Y2,4.9842,6.4947,1.5104999999999995,jarvis_3d,jarvis,high,mp-5652,3D
JVASP-9732,Cd2 S2 O8,3.3641,5.8762,2.5120999999999998,jarvis_3d,jarvis,high,mp-5679,3D
JVASP-9735,Tb4 Cu4 S8,1.2627,1.5822,0.3195000000000001,jarvis_3d,jarvis,high,mp-5737,3D
JVASP-9740,N4 O4 Ta4,2.2558,3.2383,0.9825000000000004,jarvis_3d,jarvis,high,mp-5813,3D
JVASP-9743,Li4 Ga4 O8,3.3458,3.8406,0.4947999999999997,jarvis_3d,jarvis,high,mp-5854,3D
JVASP-9745,O6 Al2 Nd2,4.3699,5.3719,1.0019999999999998,jarvis_3d,jarvis,high,mp-5899,3D
JVASP-9747,Na4 As4 S8,1.2713,2.0967,0.8253999999999997,jarvis_3d,jarvis,high,mp-5942,3D
JVASP-9750,Ho2 Ta2 O8,4.0541,5.3241,1.2699999999999996,jarvis_3d,jarvis,high,mp-5985,3D
JVASP-9754,Tl2 Sn1 As2 S6,0.9636,1.714,0.7504,jarvis_3d,jarvis,high,mp-6023,3D
JVASP-9755,C2 O6 Na2 Mg1,4.5782,6.7956,2.2174000000000005,jarvis_3d,jarvis,high,mp-6026,3D
JVASP-9756,O6 Sb1 Ba2 Sm1,3.8932,5.0592,1.1659999999999995,jarvis_3d,jarvis,high,mp-6037,3D
JVASP-9762,O6 Sr2 Y1 Sb1,3.9605,5.3183,1.3577999999999997,jarvis_3d,jarvis,high,mp-6110,3D
JVASP-9766,Na4 Ti2 Si2 O10,3.0323,3.6733,0.6409999999999996,jarvis_3d,jarvis,high,mp-6138,3D
JVASP-9771,O6 Sb1 Ba2 Dy1,3.7224,4.7815,1.0591000000000004,jarvis_3d,jarvis,high,mp-6192,3D
JVASP-9774,O6 Sb1 Ba2 Er1,3.6252,4.6965,1.0713000000000004,jarvis_3d,jarvis,high,mp-6231,3D
JVASP-9776,O6 Nb1 Ba2 Tb1,3.0557,3.7525,0.6968000000000001,jarvis_3d,jarvis,high,mp-6254,3D
JVASP-9777,Li2 O7 Sr1 Ta2,2.2102,2.5402,0.33000000000000007,jarvis_3d,jarvis,high,mp-6259,3D
JVASP-9778,O6 Sb1 Ba2 Tb1,3.772,4.8228,1.0508000000000002,jarvis_3d,jarvis,high,mp-6265,3D
JVASP-9781,O6 Ga1 Sr2 Sb1,1.4831,2.7771,1.2939999999999998,jarvis_3d,jarvis,high,mp-6304,3D
JVASP-9782,Ba3 Mg1 Ta2 O9,3.3528,4.3864,1.0336000000000003,jarvis_3d,jarvis,high,mp-6325,3D
JVASP-9786,Rb2 S2 O4 F2,4.046,5.9304,1.8843999999999994,jarvis_3d,jarvis,high,mp-6384,3D
JVASP-9788,Na4 Zn2 Si2 O8,3.4421,5.8345,2.3924000000000003,jarvis_3d,jarvis,high,mp-6391,3D
JVASP-9790,Na4 Mg2 Si2 O8,4.1019,6.816,2.7141,jarvis_3d,jarvis,high,mp-6406,3D
JVASP-9792,O10 Si2 Ca2 Ti2,2.9516,3.2331,0.28149999999999986,jarvis_3d,jarvis,high,mp-6440,3D
JVASP-9794,Li2 Al2 P4 K4,2.0714,2.8769,0.8054999999999999,jarvis_3d,jarvis,high,mp-6450,3D
JVASP-9796,Ba3 Mg1 Nb2 O9,2.7115,3.3612,0.6497000000000002,jarvis_3d,jarvis,high,mp-6474,3D
JVASP-9798,Ca2 Bi4 O8,2.0418,3.2961,1.2543000000000002,jarvis_3d,jarvis,high,mvc-4662,3D
JVASP-9799,Ca4 Sn4 O8,0.4055,0.4781,0.0726,jarvis_3d,jarvis,high,mvc-4668,3D
JVASP-9800,Zn2 Bi4 O10,0.0216,0.46,0.4384,jarvis_3d,jarvis,high,mvc-4676,3D
JVASP-9806,Zn2 Bi4 O8,0.6101,1.4948,0.8846999999999999,jarvis_3d,jarvis,high,mvc-4703,3D
JVASP-9807,Ca2 Sn4 O8,0.0004,0.0102,0.009800000000000001,jarvis_3d,jarvis,high,mvc-4706,3D
JVASP-9813,Mg2 Bi4 O10,0.0774,0.9199,0.8425,jarvis_3d,jarvis,high,mvc-4822,3D
JVASP-9832,Si4 Sn2 O12,3.25,4.8844,1.6344000000000003,jarvis_3d,jarvis,high,mvc-4955,3D
JVASP-9847,Ca4 V4 O8,0.0012,0.0039,0.0027,jarvis_3d,jarvis,high,mvc-5170,3D
JVASP-9858,Ca4 Al2 Sb2 O10,2.6129,4.2949,1.6820000000000004,jarvis_3d,jarvis,high,mvc-5272,3D
JVASP-9864,Mg2 Ag4 O8,0.7378,1.0336,0.29580000000000006,jarvis_3d,jarvis,high,mvc-5448,3D
JVASP-9867,Zn2 Ag4 O8,0.096,0.685,0.5890000000000001,jarvis_3d,jarvis,high,mvc-5517,3D
JVASP-9868,Ca2 Ag4 O8,1.0558,1.2039,0.1480999999999999,jarvis_3d,jarvis,high,mvc-5559,3D
JVASP-9876,Ca4 Al2 Bi2 O10,2.5255,4.0408,1.5152999999999999,jarvis_3d,jarvis,high,mvc-5788,3D
JVASP-9880,Ca2 Ag4 O8,0.8086,1.063,0.25439999999999996,jarvis_3d,jarvis,high,mvc-5865,3D
JVASP-9884,Mg2 Cu4 O8,0.0995,0.3765,0.277,jarvis_3d,jarvis,high,mvc-5884,3D
JVASP-9908,Mg2 Cu4 O8,0.1097,0.6487,0.539,jarvis_3d,jarvis,high,mvc-5997,3D
JVASP-9920,Ca2 Bi4 O8,1.2535,2.1099,0.8564,jarvis_3d,jarvis,high,mvc-6066,3D
JVASP-9923,Sn4 O8,0.4008,2.0538,1.6529999999999998,jarvis_3d,jarvis,high,mvc-6071,3D
JVASP-9928,Bi2 F10,0.0547,0.8497,0.795,jarvis_3d,jarvis,high,mvc-6083,3D
JVASP-9933,Ca2 Cu4 O8,0.062,0.6946,0.6326,jarvis_3d,jarvis,high,mvc-6101,3D
JVASP-9938,Ca4 Y2 Sb2 O10,2.8043,4.2275,1.4232,jarvis_3d,jarvis,high,mvc-6159,3D
JVASP-9957,Zn2 Co4 O8,0.0066,0.0123,0.0057,jarvis_3d,jarvis,high,mvc-6402,3D
JVASP-9958,Mg2 Co4 O8,0.0049,0.0059,0.001,jarvis_3d,jarvis,high,mvc-6403,3D
JVASP-9974,O6 Y1 Sb1 Ba2,3.8636,4.8109,0.9473000000000003,jarvis_3d,jarvis,high,mp-6492,3D
JVASP-9975,C2 O6 K2 Ca1,4.5549,6.5182,1.9633000000000003,jarvis_3d,jarvis,high,mp-6494,3D
JVASP-9976,C2 O6 Mg1 Ba1,4.2416,6.2248,1.9832,jarvis_3d,jarvis,high,mp-6504,3D
JVASP-9978,K4 C4 S4 N4,4.0927,5.1104,1.0177000000000005,jarvis_3d,jarvis,high,mp-6511,3D
JVASP-9987,O6 Y1 Ba2 Ta1,3.4449,4.4889,1.044,jarvis_3d,jarvis,high,mp-6613,3D
JVASP-9990,B3 O9 F1 Ca5,4.5112,6.8299,2.3187000000000006,jarvis_3d,jarvis,high,mp-6632,3D
JVASP-9991,Na4 C4 S4 N4,4.1346,5.1965,1.0619000000000005,jarvis_3d,jarvis,high,mp-6633,3D
JVASP-9993,Se6 Y2 Ag2 Ba2,1.3848,1.796,0.4112,jarvis_3d,jarvis,high,mp-6647,3D
JVASP-9994,O6 Nb1 Ba2 Er1,2.9192,3.6508,0.7315999999999998,jarvis_3d,jarvis,high,mp-6653,3D
JVASP-9995,B2 O6 Na2 Ba2,3.9455,5.7208,1.7752999999999997,jarvis_3d,jarvis,high,mp-6660,3D
JVASP-9997,O6 Sb1 Ba2 Ho1,3.6713,4.7413,1.0699999999999998,jarvis_3d,jarvis,high,mp-6687,3D
JVASP-9998,O6 Sb1 Ba2 Pr1,3.9993,4.9426,0.9432999999999998,jarvis_3d,jarvis,high,mp-6692,3D
JVASP-10010,O7 Ca2 As2,3.5481,5.2251,1.6770000000000005,jarvis_3d,jarvis,high,mp-6929,3D
JVASP-10014,Si2 As4 Rb4,1.1231,1.8369,0.7138,jarvis_3d,jarvis,high,mp-6960,3D
JVASP-10016,Be6 N4,3.613,4.7454,1.1324,jarvis_3d,jarvis,high,mp-6977,3D
JVASP-10017,O4 Na4 Ag4,1.3858,2.0997,0.7139,jarvis_3d,jarvis,high,mp-6983,3D
JVASP-10018,Si2 K4 As4,1.092,1.9047,0.8127,jarvis_3d,jarvis,high,mp-6984,3D
JVASP-10019,Ga4 Sr2 Te8,0.4525,0.922,0.46950000000000003,jarvis_3d,jarvis,high,mp-6987,3D
JVASP-10022,Mg2 Sb4 O8,0.9545,1.3653,0.41079999999999994,jarvis_3d,jarvis,high,mvc-6495,3D
JVASP-10024,Mg2 Bi4 O8,1.5655,2.2823,0.7168000000000003,jarvis_3d,jarvis,high,mvc-6512,3D
JVASP-10032,Zn2 Sb4 O8,0.9387,1.4709,0.5322000000000001,jarvis_3d,jarvis,high,mvc-6547,3D
JVASP-10033,Zn2 Bi4 O8,1.4121,2.158,0.7459,jarvis_3d,jarvis,high,mvc-6554,3D
JVASP-10034,Sb4 O8,0.1141,1.201,1.0869,jarvis_3d,jarvis,high,mvc-6570,3D
JVASP-10036,Ti4 O8,1.7688,2.0697,0.30090000000000017,jarvis_3d,jarvis,high,mvc-6590,3D
JVASP-10047,Mg2 Co4 O8,0.0063,0.008,0.0017000000000000001,jarvis_3d,jarvis,high,mvc-6910,3D
JVASP-10063,Co4 O8,0.0005,0.0135,0.013,jarvis_3d,jarvis,high,mvc-6933,3D
JVASP-10073,B2 O6 In2,3.0226,4.6025,1.5798999999999999,jarvis_3d,jarvis,high,mp-7027,3D
JVASP-10074,Yb4 O4 F4,2.2772,4.0746,1.7974,jarvis_3d,jarvis,high,mp-7028,3D
JVASP-10075,O8 F2 Mg2 Ca2 As2,4.2185,6.0378,1.8193000000000001,jarvis_3d,jarvis,high,mp-7035,3D
JVASP-10076,O6 Al4,4.9439,6.2302,1.2862999999999998,jarvis_3d,jarvis,high,mp-7048,3D
JVASP-10079,O7 Si2 Er2,4.9337,7.2587,2.325,jarvis_3d,jarvis,high,mp-7064,3D
JVASP-10080,O7 Si2 Ca1 Zr1,4.7917,5.3271,0.5354000000000001,jarvis_3d,jarvis,high,mp-7079,3D
JVASP-10082,Re2 Ag2 O8,1.9632,2.3173,0.35409999999999986,jarvis_3d,jarvis,high,mp-7094,3D
JVASP-10087,N8 O4,3.173,4.3948,1.2218,jarvis_3d,jarvis,high,mp-7139,3D
JVASP-10089,O7 K2 Sr1 Ta2,2.1173,3.4946,1.3773,jarvis_3d,jarvis,high,mp-7148,3D
JVASP-10095,O7 Si2 Lu2,5.0013,7.3243,2.3230000000000004,jarvis_3d,jarvis,high,mp-7193,3D
JVASP-10096,Rb2 Pr2 Te8,0.0229,0.9355,0.9126,jarvis_3d,jarvis,high,mp-7199,3D
JVASP-10097,Tc2 Ag2 O8,1.4355,1.683,0.24750000000000005,jarvis_3d,jarvis,high,mp-7206,3D
JVASP-10098,Cd4 B4 O10,2.6895,4.7332,2.0437000000000003,jarvis_3d,jarvis,high,mp-7210,3D
JVASP-10104,O6 Y1 Nb1 Ba2,2.9201,3.6082,0.6880999999999999,jarvis_3d,jarvis,high,mp-7251,3D
JVASP-10107,Tl4 Ge2 S6,1.4841,2.1509,0.6668000000000001,jarvis_3d,jarvis,high,mp-7277,3D
JVASP-10116,O4 Cu4 Ba2,1.5251,1.6268,0.10170000000000012,jarvis_3d,jarvis,high,mp-7374,3D
JVASP-10118,F8 Na2 Ag2,1.4002,1.4175,0.017300000000000093,jarvis_3d,jarvis,high,mp-7386,3D
JVASP-10120,F8 Na2 Au2,2.0239,2.3875,0.36360000000000037,jarvis_3d,jarvis,high,mp-7388,3D
JVASP-10121,Na6 Sb2 O8,2.2937,3.7674,1.4737,jarvis_3d,jarvis,high,mp-7404,3D
JVASP-10122,Na8 P8,0.9435,1.7727,0.8291999999999999,jarvis_3d,jarvis,high,mp-7440,3D
JVASP-10123,K8 P8,1.1322,1.9296,0.7973999999999999,jarvis_3d,jarvis,high,mp-7441,3D
JVASP-10125,S6 Rb4,1.3825,2.5731,1.1906,jarvis_3d,jarvis,high,mp-7446,3D
JVASP-10126,Se6 Rb4,0.0702,1.6581,1.5878999999999999,jarvis_3d,jarvis,high,mp-7447,3D
JVASP-10128,Sn4 F8,3.572,5.6545,2.0824999999999996,jarvis_3d,jarvis,high,mp-7456,3D
JVASP-10129,Sn4 F8,3.453,5.2271,1.7741000000000002,jarvis_3d,jarvis,high,mp-7457,3D
JVASP-10131,Hg4 Se2 O8,1.7333,2.5637,0.8303999999999998,jarvis_3d,jarvis,high,mp-7462,3D
JVASP-10132,O4 Na4 Cu4,1.3816,1.7646,0.383,jarvis_3d,jarvis,high,mp-7469,3D
JVASP-10138,P4 K4 Pd2,0.9327,1.1465,0.2138000000000001,jarvis_3d,jarvis,high,mp-7505,3D
JVASP-10140,O8 P2 In2,2.6346,4.67,2.0354,jarvis_3d,jarvis,high,mp-7566,3D
JVASP-10142,Ge4 F8,4.2989,6.3069,2.008,jarvis_3d,jarvis,high,mp-7595,3D
JVASP-10143,Nb4 N4 O4,1.6077,2.1126,0.5049000000000001,jarvis_3d,jarvis,high,mp-7596,3D
JVASP-10146,O6 Ti2 Hg2,1.427,2.1835,0.7565,jarvis_3d,jarvis,high,mp-7607,3D
JVASP-10147,Sb4 O4 F4,3.3257,4.9484,1.6227000000000005,jarvis_3d,jarvis,high,mp-7609,3D
JVASP-10148,F6 Rb3 Tl1,3.1891,5.2509,2.0618,jarvis_3d,jarvis,high,mp-7615,3D
JVASP-10149,O8 K2 Tc2,3.3309,3.784,0.4530999999999996,jarvis_3d,jarvis,high,mp-7621,3D
JVASP-10151,O8 As2 Lu2,3.7626,5.3773,1.6147,jarvis_3d,jarvis,high,mp-7644,3D
JVASP-10153,S6 K4,1.3423,2.5958,1.2535,jarvis_3d,jarvis,high,mp-7667,3D
JVASP-10154,K4 Se6,0.0565,1.6442,1.5877000000000001,jarvis_3d,jarvis,high,mp-7670,3D
JVASP-10156,Dy2 Ta2 O8,4.0518,5.3197,1.2679,jarvis_3d,jarvis,high,mp-7703,3D
JVASP-10157,Zn4 F8,3.77,6.535,2.765,jarvis_3d,jarvis,high,mp-7709,3D
JVASP-10158,Li4 O5 U1,2.2105,2.375,0.16449999999999987,jarvis_3d,jarvis,high,mp-7714,3D
JVASP-10162,Ca2 Bi4 O8,1.689,3.6857,1.9967000000000001,jarvis_3d,jarvis,high,mvc-7276,3D
JVASP-10164,Zn2 Sb4 O8,2.2525,3.5863,1.3338,jarvis_3d,jarvis,high,mvc-7295,3D
JVASP-10165,Mg2 Bi4 O8,2.2812,4.0083,1.7271,jarvis_3d,jarvis,high,mvc-7302,3D
JVASP-10168,Zn2 Ag4 O8,0.0057,0.5695,0.5638,jarvis_3d,jarvis,high,mvc-7315,3D
JVASP-10171,Zn2 Bi4 O8,1.7139,3.2585,1.5446000000000002,jarvis_3d,jarvis,high,mvc-7347,3D
JVASP-10175,Cd2 Ge4 O10,1.6555,3.4883,1.8328000000000002,jarvis_3d,jarvis,high,mp-7762,3D
JVASP-10177,Sb2 As2 O8,3.1944,4.5796,1.3852000000000002,jarvis_3d,jarvis,high,mp-7784,3D
JVASP-10180,Li4 Sm4 O8,3.7446,4.9663,1.2217000000000002,jarvis_3d,jarvis,high,mp-7800,3D
JVASP-10181,Ge4 O8,3.207,5.3538,2.1468,jarvis_3d,jarvis,high,mp-7812,3D
JVASP-10182,O8 Mg2 In4,2.0727,3.8392,1.7664999999999997,jarvis_3d,jarvis,high,mp-7831,3D
JVASP-10185,Na1 Tl3 S2 O6,3.0401,4.396,1.3559,jarvis_3d,jarvis,high,mp-7853,3D
JVASP-10186,O8 Mg2 U2,1.8193,1.852,0.03270000000000017,jarvis_3d,jarvis,high,mp-7858,3D
JVASP-10189,O4 K4 Cu4,1.3801,1.7825,0.40239999999999987,jarvis_3d,jarvis,high,mp-7911,3D
JVASP-10192,Li8 As8,0.1456,0.918,0.7724,jarvis_3d,jarvis,high,mp-7943,3D
JVASP-10194,Th4 Se8,0.7023,1.148,0.4456999999999999,jarvis_3d,jarvis,high,mp-7951,3D
JVASP-10196,Mg4 Si2 O8,4.9145,6.5798,1.6652999999999993,jarvis_3d,jarvis,high,mp-7982,3D
JVASP-10201,Zr2 Ge2 O8,3.9051,4.8366,0.9314999999999998,jarvis_3d,jarvis,high,mp-8042,3D
JVASP-10202,O8 As2 Y2,3.908,5.4718,1.5638,jarvis_3d,jarvis,high,mp-8058,3D
JVASP-10203,Na4 Sn2 F12,5.0817,7.8522,2.7705,jarvis_3d,jarvis,high,mp-8081,3D
JVASP-10204,Mg6 P4,1.1885,1.644,0.4555,jarvis_3d,jarvis,high,mp-8085,3D
JVASP-10206,In2 Ga2 O6,1.5839,3.4041,1.8202,jarvis_3d,jarvis,high,mp-8098,3D
JVASP-10209,K4 As4 Pd2,0.6682,0.8001,0.13190000000000002,jarvis_3d,jarvis,high,mp-8147,3D
JVASP-10213,Li4 Zn2 Ge2 O8,3.2565,3.6417,0.3852000000000002,jarvis_3d,jarvis,high,mp-8184,3D
JVASP-10214,O4 K4 Zn2,2.3419,4.1571,1.8152,jarvis_3d,jarvis,high,mp-8187,3D
JVASP-10219,Zr2 P4 S12,1.6695,2.012,0.3425,jarvis_3d,jarvis,high,mp-8203,3D
JVASP-10220,O6 Zn1 Pt3,0.0023,0.6706,0.6683,jarvis_3d,jarvis,high,mp-8207,3D
JVASP-10221,O6 Mg1 Pt3,0.0152,0.6859,0.6707,jarvis_3d,jarvis,high,mp-8208,3D
JVASP-10222,O6 Cd1 Pt3,0.0144,0.4465,0.4321,jarvis_3d,jarvis,high,mp-8212,3D
JVASP-10223,O6 Al2 Pr2,2.9977,4.0704,1.0727000000000002,jarvis_3d,jarvis,high,mp-8218,3D
JVASP-10224,O12 P4 Zn2,5.0641,6.6249,1.5608000000000004,jarvis_3d,jarvis,high,mp-8230,3D
JVASP-10226,O6 Rb4 Te2,3.6621,4.7287,1.0665999999999998,jarvis_3d,jarvis,high,mp-8248,3D
JVASP-10227,P2 S6 Tl2,1.6501,2.4144,0.7643000000000002,jarvis_3d,jarvis,high,mp-8249,3D
JVASP-10228,O6 Na5 Re1,2.3064,3.0495,0.7431000000000001,jarvis_3d,jarvis,high,mp-8253,3D
JVASP-10229,Na4 S4 Zn2,2.5185,4.4437,1.9251999999999998,jarvis_3d,jarvis,high,mp-8257,3D
JVASP-10230,P6 K4,0.6956,1.2195,0.5239,jarvis_3d,jarvis,high,mp-8262,3D
JVASP-10232,P2 S6 K2,1.6167,2.506,0.8892999999999998,jarvis_3d,jarvis,high,mp-8267,3D
JVASP-10233,S8 Cd2 Lu4,1.2125,2.3335,1.121,jarvis_3d,jarvis,high,mp-8269,3D
JVASP-10235,O6 Zn2 Ge2,2.3732,4.062,1.6888,jarvis_3d,jarvis,high,mp-8285,3D
JVASP-10240,K2 Al2 Si2 O8,4.7497,7.5089,2.7592,jarvis_3d,jarvis,high,mp-8355,3D
JVASP-10247,Rb4 Li4 Si2 O8,4.3803,6.5136,2.1333,jarvis_3d,jarvis,high,mp-8449,3D
JVASP-10249,O8 S2 Cd2,3.1866,5.7178,2.5312000000000006,jarvis_3d,jarvis,high,mp-8459,3D
JVASP-10250,Si2 S8 Tl8,1.9957,2.6236,0.6279000000000001,jarvis_3d,jarvis,high,mp-8479,3D
JVASP-10251,K4 S2 O6,5.1156,7.2824,2.1668000000000003,jarvis_3d,jarvis,high,mp-8483,3D