material_id,formula,pbe_bandgap,hse_bandgap,bandgap_correction,dataset,data_source,confidence,mpid,dimensionality
JVASP-54790,Ga12 Os4,0.7649,1.0602,0.2953,jarvis_3d,jarvis,high,mp-570844,3D
JVASP-54794,Sm2 Ag2 Pb2,0.0138,0.0805,0.06670000000000001,jarvis_3d,jarvis,high,mp-570855,3D
JVASP-54795,Ag2 Cl2,0.4877,2.1417,1.6540000000000001,jarvis_3d,jarvis,high,mp-570858,3D
JVASP-54797,Cr1 Co1 Pt2,0.0022,0.0057,0.0035,jarvis_3d,jarvis,high,mp-570863,3D
JVASP-54803,Ga4 Os2,0.6661,0.738,0.07189999999999996,jarvis_3d,jarvis,high,mp-570875,3D
JVASP-54805,K4 Ag4 Sn2 Se8,0.777,1.8542,1.0772,jarvis_3d,jarvis,high,mp-570887,3D
JVASP-54807,K1 Br1,4.3436,6.8366,2.4929999999999994,jarvis_3d,jarvis,high,mp-570891,3D
JVASP-54812,Ga2 Ni4,0.0056,0.0252,0.0196,jarvis_3d,jarvis,high,mp-570904,3D
JVASP-54820,Nd2 Pt2,0.0005,0.0006,9.999999999999994e-05,jarvis_3d,jarvis,high,mp-570934,3D
JVASP-54821,Li2 I2,4.5534,5.9679,1.4145000000000003,jarvis_3d,jarvis,high,mp-570935,3D
JVASP-54829,Na1 Li2 N1,0.0336,0.1091,0.07550000000000001,jarvis_3d,jarvis,high,mp-570950,3D
JVASP-54833,Dy4 Cd2 Se8,0.3893,1.8413,1.452,jarvis_3d,jarvis,high,mp-570959,3D
JVASP-54835,Cd2 Bi2 Se4 I2,1.2858,1.9468,0.661,jarvis_3d,jarvis,high,mp-570961,3D
JVASP-54838,Sr6 Ga6 N10,1.5964,2.8144,1.218,jarvis_3d,jarvis,high,mp-570971,3D
JVASP-54845,Na1 Li2 N1,0.3871,1.0745,0.6874,jarvis_3d,jarvis,high,mp-570998,3D
JVASP-54860,Y1 Cd3,0.0276,0.0825,0.054900000000000004,jarvis_3d,jarvis,high,mp-571059,3D
JVASP-54865,Tl2 Cl2,2.4676,3.4168,0.9491999999999998,jarvis_3d,jarvis,high,mp-571079,3D
JVASP-54868,Er2 Mn4,0.0001,0.0023,0.0022,jarvis_3d,jarvis,high,mp-571090,3D
JVASP-54869,Ba1 Al1 Si1 H1,0.8065,0.9985,0.19200000000000006,jarvis_3d,jarvis,high,mp-571093,3D
JVASP-54873,Tl1 I1,2.1187,2.9054,0.7867000000000002,jarvis_3d,jarvis,high,mp-571102,3D
JVASP-54884,Mg2 B4 H16,5.9277,8.3512,2.4235000000000007,jarvis_3d,jarvis,high,mp-571156,3D
JVASP-54886,Ca6 Ga4 N8,2.2528,3.53,1.2771999999999997,jarvis_3d,jarvis,high,mp-571162,3D
JVASP-54897,Zn3 Te3,1.057,2.2346,1.1776,jarvis_3d,jarvis,high,mp-571195,3D
JVASP-54898,Sr1 Co2 As2,0.0018,0.0026,0.0007999999999999999,jarvis_3d,jarvis,high,mp-571203,3D
JVASP-54904,Sr3 Al2 Ge4,0.0119,0.0524,0.0405,jarvis_3d,jarvis,high,mp-571216,3D
JVASP-54910,Yb4 Br8,4.7384,6.6913,1.9528999999999996,jarvis_3d,jarvis,high,mp-571232,3D
JVASP-54913,Al12 Mo4,0.0183,0.0202,0.001899999999999999,jarvis_3d,jarvis,high,mp-571247,3D
JVASP-54921,Ge6 N8,1.7526,2.881,1.1283999999999998,jarvis_3d,jarvis,high,mp-571281,3D
JVASP-54924,K2 Ta2 Ag4 Se8,1.6597,1.9827,0.32299999999999995,jarvis_3d,jarvis,high,mp-571288,3D
JVASP-54940,Ba1 Cr2 As2,0.0078,0.0141,0.0063,jarvis_3d,jarvis,high,mp-571339,3D
JVASP-54941,Ti4 Ga8,0.0023,0.0028,0.0005,jarvis_3d,jarvis,high,mp-571342,3D
JVASP-54950,Hf1 Co2 Si2,0.0018,0.0052,0.0034,jarvis_3d,jarvis,high,mp-571367,3D
JVASP-54954,Nd1 Co2 As2,0.0009,0.001,0.00010000000000000005,jarvis_3d,jarvis,high,mp-571382,3D
JVASP-54955,K1 Mn1 Ag3 C6 N6,1.2647,1.5962,0.33150000000000013,jarvis_3d,jarvis,high,mp-571384,3D
JVASP-54956,Cu1 Cl1,0.2948,1.5254,1.2306000000000001,jarvis_3d,jarvis,high,mp-571386,3D
JVASP-54957,Mg2 Cl4,4.4719,6.5702,2.0983,jarvis_3d,jarvis,high,mp-571387,3D
JVASP-54966,K1 Na1 B2 H8,6.3864,8.6564,2.2699999999999996,jarvis_3d,jarvis,high,mp-571414,3D
JVASP-54975,Be12 V1,0.0065,0.0121,0.0056,jarvis_3d,jarvis,high,mp-571438,3D
JVASP-54976,K8 Cu4 Br12,2.1751,3.2464,1.0713,jarvis_3d,jarvis,high,mp-571440,3D
JVASP-54981,Li1 Ag1 C2,1.5128,1.9291,0.4163000000000001,jarvis_3d,jarvis,high,mp-571454,3D
JVASP-54991,Ho1 B6,0.018,0.0291,0.011100000000000002,jarvis_3d,jarvis,high,mp-571491,3D
JVASP-54995,Ho1 Fe2 B2,0.0009,0.0011,0.0002000000000000001,jarvis_3d,jarvis,high,mp-571500,3D
JVASP-55019,Na4 Li2 N2,0.884,2.3449,1.4609,jarvis_3d,jarvis,high,mp-571587,3D
JVASP-55032,Ca4 Cl8,5.0839,6.6556,1.5716999999999999,jarvis_3d,jarvis,high,mp-571627,3D
JVASP-55074,Ba4 Li6 Ta2 N8,2.4873,3.1437,0.6564000000000001,jarvis_3d,jarvis,high,mp-573677,3D
JVASP-55099,U2 Al8,0.0004,0.001,0.0006000000000000001,jarvis_3d,jarvis,high,mp-574122,3D
JVASP-55105,Tm3 Al1 C1,0.0182,0.0377,0.019499999999999997,jarvis_3d,jarvis,high,mp-574239,3D
JVASP-55115,Se8 N8,1.6844,1.9194,0.2350000000000001,jarvis_3d,jarvis,high,mp-574424,3D
JVASP-55128,Na2 C8 N6,3.6024,5.0719,1.4695000000000005,jarvis_3d,jarvis,high,mp-574822,3D
JVASP-55130,Na1 Cu1 O2,0.0017,0.01,0.0083,jarvis_3d,jarvis,high,mp-578606,3D
JVASP-55211,Rb1 N3,3.9542,5.0555,1.1013000000000002,jarvis_3d,jarvis,high,mp-581833,3D
JVASP-55212,K4 Bi4 F16,3.3779,4.578,1.2001000000000004,jarvis_3d,jarvis,high,mp-581857,3D
JVASP-55214,Sm8 I16,0.0042,0.0502,0.046,jarvis_3d,jarvis,high,mp-581941,3D
JVASP-55226,Li14 V2 N8,2.2543,2.5124,0.2580999999999998,jarvis_3d,jarvis,high,mp-582259,3D
JVASP-56047,Li2 I2,4.5581,5.2516,0.6935000000000002,jarvis_3d,jarvis,high,mp-568273,3D
JVASP-56173,Cr3 In1 O8,0.0018,0.0076,0.0058,jarvis_3d,jarvis,high,mp-569317,3D
JVASP-56182,Li2 Ag1 Bi1,0.009,0.0308,0.0218,jarvis_3d,jarvis,high,mp-569333,3D
JVASP-56190,Cu2 I2,1.2967,2.1706,0.8738999999999999,jarvis_3d,jarvis,high,mp-569346,3D
JVASP-56195,Fe1 B2,0.0055,0.0119,0.006400000000000001,jarvis_3d,jarvis,high,mp-569376,3D
JVASP-56212,Cr8 B4,0.0012,0.0019,0.0007000000000000001,jarvis_3d,jarvis,high,mp-569424,3D
JVASP-56217,Rb2 Au2 Cl8,1.8427,2.5156,0.6729,jarvis_3d,jarvis,high,mp-569442,3D
JVASP-56218,Ni2 Pb2,0.0052,0.0103,0.0051,jarvis_3d,jarvis,high,mp-569446,3D
JVASP-56219,Li2 B12 C2,1.4321,1.581,0.14890000000000003,jarvis_3d,jarvis,high,mp-569450,3D
JVASP-56246,Ca4 Bi2,0.0193,0.0224,0.0030999999999999986,jarvis_3d,jarvis,high,mp-569535,3D
JVASP-56253,Nb6 Sb4 Te10,0.9902,1.0516,0.06140000000000012,jarvis_3d,jarvis,high,mp-569571,3D
JVASP-56261,Ge3 As4,0.068,0.7593,0.6913,jarvis_3d,jarvis,high,mp-569600,3D
JVASP-56267,Ca3 Zn2 Cu2 P4,0.0384,0.4442,0.4058,jarvis_3d,jarvis,high,mp-569617,3D
JVASP-56271,Tl1 Cl1,2.7242,3.7963,1.0720999999999998,jarvis_3d,jarvis,high,mp-569639,3D
JVASP-56272,Ti2 Sb2,0.0165,0.0174,0.000899999999999998,jarvis_3d,jarvis,high,mp-569640,3D
JVASP-56283,Sr2 I1 N1,1.9995,2.6845,0.6849999999999998,jarvis_3d,jarvis,high,mp-569677,3D
JVASP-56298,Tb1 Si2 Pt2,0.0057,0.0141,0.0084,jarvis_3d,jarvis,high,mp-569737,3D
JVASP-56304,Tl2 Co2 Cl6,0.0199,0.0234,0.0034999999999999996,jarvis_3d,jarvis,high,mp-569753,3D
JVASP-56312,Tl1 Pd3,0.0134,0.0156,0.002199999999999999,jarvis_3d,jarvis,high,mp-569785,3D
JVASP-56315,Ba1 Ag2 Ge1 Se4,0.0023,0.8847,0.8824000000000001,jarvis_3d,jarvis,high,mp-569790,3D
JVASP-56323,Ba2 N6 Cl2,4.0996,4.9442,0.8446000000000007,jarvis_3d,jarvis,high,mp-569812,3D
JVASP-56324,Si16 Ru8,0.2405,0.6367,0.39620000000000005,jarvis_3d,jarvis,high,mp-569815,3D
JVASP-56327,Y1 In1 Ag2,0.0189,0.0922,0.0733,jarvis_3d,jarvis,high,mp-569823,3D
JVASP-56339,Mn1 Tl2 Sn1 Te4,0.0031,0.0032,0.00010000000000000026,jarvis_3d,jarvis,high,mp-569859,3D
JVASP-56342,Sr4 P12,0.0698,0.9322,0.8624,jarvis_3d,jarvis,high,mp-569867,3D
JVASP-56343,Tm6 Co1 Bi2,0.01,0.0109,0.0008999999999999998,jarvis_3d,jarvis,high,mp-569871,3D
JVASP-56348,Sr1 Ni2 Sb2,0.0045,0.0058,0.0013,jarvis_3d,jarvis,high,mp-569881,3D
JVASP-56364,Hf1 Cu1 P1,0.0162,0.0538,0.0376,jarvis_3d,jarvis,high,mp-569933,3D
JVASP-56367,K6 Bi2,0.0621,1.0475,0.9854,jarvis_3d,jarvis,high,mp-569940,3D
JVASP-56386,Yb1 Sb1 Pt1,0.0171,0.0238,0.006700000000000001,jarvis_3d,jarvis,high,mp-570014,3D
JVASP-56435,K4 Sn2 Cl12,2.4598,3.8606,1.4007999999999998,jarvis_3d,jarvis,high,mp-570173,3D
JVASP-56437,Tb1 Au2,0.0032,0.009,0.0058,jarvis_3d,jarvis,high,mp-570179,3D
JVASP-56453,Th2 Br8,3.1753,3.2708,0.09549999999999992,jarvis_3d,jarvis,high,mp-570229,3D
JVASP-56455,Tb4 Cl12,4.4416,5.9212,1.4795999999999996,jarvis_3d,jarvis,high,mp-570232,3D
JVASP-56461,Ca6 Al4 N8,2.5424,3.6023,1.0598999999999998,jarvis_3d,jarvis,high,mp-570258,3D
JVASP-56474,Ag2 Br2,0.7427,2.5145,1.7717999999999998,jarvis_3d,jarvis,high,mp-570301,3D
JVASP-56484,Cu1 Br1,0.3825,1.2865,0.9039999999999999,jarvis_3d,jarvis,high,mp-570354,3D
JVASP-56488,Sn3 As4,0.285,1.1383,0.8533000000000002,jarvis_3d,jarvis,high,mp-570377,3D
JVASP-56493,Nd1 Cr2 Si2,0.0037,0.0136,0.009899999999999999,jarvis_3d,jarvis,high,mp-570399,3D
JVASP-56505,Ag4 Te12 I4,0.8794,1.5308,0.6514,jarvis_3d,jarvis,high,mp-570431,3D
JVASP-56525,Sr1 Al1 Si1 H1,0.7098,1.0321,0.32230000000000003,jarvis_3d,jarvis,high,mp-570485,3D
JVASP-56576,Ag2 Cl2,0.9333,2.8847,1.9514,jarvis_3d,jarvis,high,mp-570687,3D
JVASP-56582,Ca4 C8,1.7499,3.7283,1.9784,jarvis_3d,jarvis,high,mp-570697,3D
JVASP-56583,V3 Au1,0.0037,0.0038,9.999999999999983e-05,jarvis_3d,jarvis,high,mp-570698,3D
JVASP-56593,Si3 As4,0.2315,0.9377,0.7061999999999999,jarvis_3d,jarvis,high,mp-570744,3D
JVASP-56594,Yb1 Hg2,0.0054,0.0063,0.0008999999999999998,jarvis_3d,jarvis,high,mp-570749,3D
JVASP-56597,Tb8 Bi6,0.0162,0.0219,0.0057,jarvis_3d,jarvis,high,mp-570759,3D
JVASP-56623,Ba4 V4 Cl4 O12,1.9302,2.5617,0.6315000000000002,jarvis_3d,jarvis,high,mp-566321,3D
JVASP-56629,V4 Ag4 O12,1.2778,1.4241,0.14629999999999987,jarvis_3d,jarvis,high,mp-566337,3D
JVASP-56632,Ba1 Mo4 P2 O16,1.9696,2.2635,0.29390000000000005,jarvis_3d,jarvis,high,mp-566404,3D
JVASP-56641,V2 Bi2 Pb2 O10,2.6121,2.8626,0.25050000000000017,jarvis_3d,jarvis,high,mp-566459,3D
JVASP-56648,Ba2 W2 O8,2.1773,2.926,0.7487000000000004,jarvis_3d,jarvis,high,mp-566504,3D
JVASP-56652,Sm6 B2 W2 O18,3.2876,4.2983,1.0107000000000004,jarvis_3d,jarvis,high,mp-566537,3D
JVASP-56667,K2 Cr2 F6,0.0072,0.0076,0.0004000000000000002,jarvis_3d,jarvis,high,mp-566698,3D
JVASP-56672,Y2 Mo2 Cl2 O8,2.5862,3.6058,1.0196,jarvis_3d,jarvis,high,mp-566749,3D
JVASP-56679,V4 O8,0.8134,0.9648,0.15139999999999998,jarvis_3d,jarvis,high,mp-566801,3D
JVASP-56687,K2 Na6 W2 O10,3.6978,4.7509,1.0530999999999997,jarvis_3d,jarvis,high,mp-566869,3D
JVASP-56688,Ag6 Mo2 Cl1 O7 F3,1.6554,2.5001,0.8447000000000002,jarvis_3d,jarvis,high,mp-566886,3D
JVASP-56691,Hg4 Mo2 O8,1.8058,2.3587,0.5528999999999997,jarvis_3d,jarvis,high,mp-566907,3D
JVASP-56696,K4 V4 O4 F16,3.115,3.5515,0.43649999999999967,jarvis_3d,jarvis,high,mp-566952,3D
JVASP-56700,K3 V1 C1 O8,2.239,2.7687,0.5297000000000001,jarvis_3d,jarvis,high,mp-566999,3D
JVASP-56714,K1 Ni1 P3 O9,2.8911,5.0341,2.143,jarvis_3d,jarvis,high,mp-567084,3D
JVASP-56716,Yb1 Rh1,0.0442,0.0592,0.015,jarvis_3d,jarvis,high,mp-567089,3D
JVASP-56717,Yb1 Si2 Os2,0.006,0.0157,0.009699999999999999,jarvis_3d,jarvis,high,mp-567093,3D
JVASP-56724,Ca10 W2 N8 O4,2.3713,3.4065,1.0351999999999997,jarvis_3d,jarvis,high,mp-567141,3D
JVASP-56726,B2 Rh2,0.0205,0.0357,0.015200000000000002,jarvis_3d,jarvis,high,mp-567164,3D
JVASP-56727,Ba1 Mo1 P2 O8,0.0036,0.0136,0.009999999999999998,jarvis_3d,jarvis,high,mp-567167,3D
JVASP-56730,K2 Nb2 Ag4 Se8,1.3901,1.6484,0.2583000000000002,jarvis_3d,jarvis,high,mp-567177,3D
JVASP-56743,Li4 Ca3 Si2 N6,2.4545,3.4085,0.9540000000000002,jarvis_3d,jarvis,high,mp-567219,3D
JVASP-56744,Hf4 Sb2 P2,0.0068,0.0074,0.0006000000000000007,jarvis_3d,jarvis,high,mp-567220,3D
JVASP-56746,Lu2 Al2 Si2,0.0061,0.0072,0.0010999999999999994,jarvis_3d,jarvis,high,mp-567229,3D
JVASP-56749,Tm1 Cr2 Si2,0.0007,0.0008,0.00010000000000000005,jarvis_3d,jarvis,high,mp-567243,3D
JVASP-56757,Sr1 Si6 N8,3.3369,4.4462,1.1093000000000002,jarvis_3d,jarvis,high,mp-567278,3D
JVASP-56758,K1 C2 I1 N2,4.2107,5.4522,1.2415000000000003,jarvis_3d,jarvis,high,mp-567299,3D
JVASP-56792,Sm1 Zn5,0.0065,0.0152,0.0087,jarvis_3d,jarvis,high,mp-567406,3D
JVASP-56798,Ho1 Sb1 Pd1,0.2067,0.6221,0.4154,jarvis_3d,jarvis,high,mp-567418,3D
JVASP-56807,Na4 V4 O12,2.8272,3.2945,0.46730000000000027,jarvis_3d,jarvis,high,mp-567447,3D
JVASP-56810,Ca1 Ge2,0.0076,0.0096,0.001999999999999999,jarvis_3d,jarvis,high,mp-567456,3D
JVASP-56812,Ho1 P2 Ru2,0.0089,0.0164,0.0075000000000000015,jarvis_3d,jarvis,high,mp-567458,3D
JVASP-56819,Pt2 Cl4,0.055,0.9511,0.8960999999999999,jarvis_3d,jarvis,high,mp-567484,3D
JVASP-56834,Ho7 Fe1 I12,0.0048,0.3455,0.34069999999999995,jarvis_3d,jarvis,high,mp-567566,3D
JVASP-56838,Pa1 C1,0.0171,0.0504,0.033299999999999996,jarvis_3d,jarvis,high,mp-567580,3D
JVASP-56840,Hf8 Te4,0.0045,0.0074,0.0029000000000000007,jarvis_3d,jarvis,high,mp-567584,3D
JVASP-56842,Dy1 Al3,0.0073,0.0332,0.0259,jarvis_3d,jarvis,high,mp-567589,3D
JVASP-56853,Mg2 Zn4,0.0048,0.0053,0.0005000000000000004,jarvis_3d,jarvis,high,mp-567626,3D
JVASP-56856,V1 Fe1 Sb1,0.2668,0.3751,0.10830000000000001,jarvis_3d,jarvis,high,mp-567636,3D
JVASP-56857,Rb2 Cu4 Br6,1.8735,3.0143,1.1408,jarvis_3d,jarvis,high,mp-567644,3D
JVASP-56861,Sr2 C1 N2 Cl2,4.403,6.0037,1.6007000000000007,jarvis_3d,jarvis,high,mp-567655,3D
JVASP-56868,Ge1 I2,1.7618,2.2141,0.45230000000000015,jarvis_3d,jarvis,high,mp-567677,3D
JVASP-56871,Ba3 Cl6,4.5264,5.9994,1.4729999999999999,jarvis_3d,jarvis,high,mp-567680,3D
JVASP-56880,Ti4 Al8,0.0155,0.0262,0.010700000000000001,jarvis_3d,jarvis,high,mp-567705,3D
JVASP-56881,Pr2 Co2 Ge2,0.0081,0.0136,0.0055,jarvis_3d,jarvis,high,mp-567712,3D
JVASP-56890,Sr4 Br8,4.6497,6.4477,1.798,jarvis_3d,jarvis,high,mp-567744,3D
JVASP-56911,Sm1 Cr2 Si2,0.0032,0.0063,0.0031,jarvis_3d,jarvis,high,mp-567830,3D
JVASP-56914,K4 Na2 B2 P4,1.8326,2.6363,0.8036999999999999,jarvis_3d,jarvis,high,mp-567836,3D
JVASP-56962,Cr1 Ga1 Co2,0.0056,0.0069,0.0013,jarvis_3d,jarvis,high,mp-567981,3D
JVASP-56984,Ca3 Si1 Br2,0.0885,0.4728,0.3843,jarvis_3d,jarvis,high,mp-568050,3D
JVASP-56994,Ti4 Bi2,0.0014,0.0096,0.008199999999999999,jarvis_3d,jarvis,high,mp-568069,3D
JVASP-56995,Nb1 Co1 Sn1,0.0688,0.1033,0.0345,jarvis_3d,jarvis,high,mp-568075,3D
JVASP-57000,Yb1 P2 Ru2,0.0022,0.0038,0.0015999999999999999,jarvis_3d,jarvis,high,mp-568095,3D
JVASP-57020,Tb2 Cl6,4.254,5.4397,1.1857000000000006,jarvis_3d,jarvis,high,mp-568170,3D
JVASP-55237,Lu8 Zn4 S16,2.3719,3.3133,0.9413999999999998,jarvis_3d,jarvis,high,mp-18332,3D
JVASP-55239,K14 Nb2 As8,1.3187,1.7843,0.4656,jarvis_3d,jarvis,high,mp-18361,3D
JVASP-55252,O12 Na6 Ca4 Ta2,4.2528,5.7093,1.4565000000000001,jarvis_3d,jarvis,high,mp-18480,3D
JVASP-55253,K12 Mn2 Se8,0.4302,1.5402,1.1099999999999999,jarvis_3d,jarvis,high,mp-18481,3D
JVASP-55269,K12 As4 Se12,2.0713,3.2518,1.1804999999999999,jarvis_3d,jarvis,high,mp-18594,3D
JVASP-55301,Ca4 Co2 Si4 O14,1.6221,2.8473,1.2252,jarvis_3d,jarvis,high,mp-18786,3D
JVASP-55455,O16 V4 Zn6,2.6071,2.9386,0.33150000000000013,jarvis_3d,jarvis,high,mp-19582,3D
JVASP-55507,O14 V4 Zn4,2.2953,2.6469,0.3515999999999999,jarvis_3d,jarvis,high,mp-19707,3D
JVASP-55521,Si12 Ru8,0.0188,0.0266,0.007799999999999998,jarvis_3d,jarvis,high,mp-20191,3D
JVASP-55522,P4 Pb4 S12,2.2478,2.8891,0.6413000000000002,jarvis_3d,jarvis,high,mp-20199,3D
JVASP-55536,Dy4 Be4 Ge2 O14,4.6009,6.489,1.8880999999999997,jarvis_3d,jarvis,high,mp-20778,3D
JVASP-55541,Ti4 Cd4 O12,2.3491,2.7493,0.4001999999999999,jarvis_3d,jarvis,high,mp-20940,3D
JVASP-55591,In4 P4 O16,3.062,5.0687,2.0067,jarvis_3d,jarvis,high,mp-22569,3D
JVASP-55641,Na4 Br4 O12,4.4533,5.6979,1.2446000000000002,jarvis_3d,jarvis,high,mp-23339,3D
JVASP-55652,Cl12 K8 Cd2,4.0602,6.2951,2.2348999999999997,jarvis_3d,jarvis,high,mp-23392,3D
JVASP-55673,Na6 In2 Cl12,3.7578,5.6517,1.8939,jarvis_3d,jarvis,high,mp-23503,3D
JVASP-55691,Na4 Mg4 H12,3.6767,5.8803,2.2036000000000002,jarvis_3d,jarvis,high,mp-23730,3D
JVASP-55701,Ca1 H12 Cl2 O6,5.0565,7.7372,2.6807,jarvis_3d,jarvis,high,mp-23914,3D
JVASP-55702,H8 N2 O8 Tc2,3.419,3.8224,0.4034,jarvis_3d,jarvis,high,mp-23925,3D
JVASP-55704,H4 I4 O12,3.085,4.2024,1.1174,jarvis_3d,jarvis,high,mp-23963,3D
JVASP-55711,K6 Al2 H12,3.2364,5.471,2.2346,jarvis_3d,jarvis,high,mp-24034,3D
JVASP-55712,Ca1 H12 Br2 O6,4.1851,6.6157,2.4306,jarvis_3d,jarvis,high,mp-24044,3D
JVASP-55721,H12 B12 K3 I1,4.9422,6.1285,1.1863000000000001,jarvis_3d,jarvis,high,mp-24240,3D
JVASP-55728,Rb4 H4 C4 O8,4.3697,6.1907,1.8209999999999997,jarvis_3d,jarvis,high,mp-24328,3D
JVASP-55730,Li4 Be4 H12,3.0634,3.881,0.8175999999999997,jarvis_3d,jarvis,high,mp-24342,3D
JVASP-55732,K4 Li2 Al2 H12,2.7211,2.7506,0.02950000000000008,jarvis_3d,jarvis,high,mp-24411,3D
JVASP-55733,K4 Na2 Al2 H12,2.6757,5.0938,2.4181,jarvis_3d,jarvis,high,mp-24412,3D
JVASP-55743,Rb4 Cu2 H8 Cl8 O4,4.027,5.8536,1.8266,jarvis_3d,jarvis,high,mp-24559,3D
JVASP-57037,Ho4 Cu4 S8,1.7284,2.0618,0.3333999999999999,jarvis_3d,jarvis,high,mp-560611,3D
JVASP-57039,K4 C4 O8,2.7249,4.1271,1.4022000000000006,jarvis_3d,jarvis,high,mp-560616,3D
JVASP-57040,Ba1 Zr1 P2 O8,4.0091,4.4948,0.4856999999999996,jarvis_3d,jarvis,high,mp-560620,3D
JVASP-57041,Mg6 P4 O16,5.5845,7.747,2.1624999999999996,jarvis_3d,jarvis,high,mp-560623,3D
JVASP-57047,Mg4 Se4 O16,3.3686,4.7784,1.4098000000000006,jarvis_3d,jarvis,high,mp-560670,3D
JVASP-57049,K6 Cu1 Si2 O8,1.9832,4.2479,2.2646999999999995,jarvis_3d,jarvis,high,mp-560675,3D
JVASP-57054,K2 Na2 Ti2 O6,3.5619,4.1912,0.6293000000000002,jarvis_3d,jarvis,high,mp-560767,3D
JVASP-57059,Nd6 Si4 Cl2 O16,5.317,6.4562,1.1391999999999998,jarvis_3d,jarvis,high,mp-560830,3D
JVASP-57061,Cd4 Si2 O8,1.306,2.8023,1.4962999999999997,jarvis_3d,jarvis,high,mp-560842,3D
JVASP-57065,Tb6 Si4 S16 I2,2.459,3.1107,0.6517,jarvis_3d,jarvis,high,mp-560853,3D
JVASP-57066,Na8 Pt4 O12,1.7229,2.1153,0.39239999999999986,jarvis_3d,jarvis,high,mp-560860,3D
JVASP-57069,Ba2 Ga4 B4 O14,4.2092,6.3332,2.1239999999999997,jarvis_3d,jarvis,high,mp-560870,3D
JVASP-57073,Ca4 Si4 O12,4.2159,5.4384,1.2224999999999993,jarvis_3d,jarvis,high,mp-560885,3D
JVASP-57075,Cd2 Hg4 S2 O12,1.4385,2.7181,1.2796000000000003,jarvis_3d,jarvis,high,mp-560904,3D
JVASP-57081,Si8 O16,4.5334,7.6177,3.0843,jarvis_3d,jarvis,high,mp-560954,3D
JVASP-57084,Rb2 Na1 Mo1 F6,1.8566,2.4864,0.6298000000000001,jarvis_3d,jarvis,high,mp-560963,3D
JVASP-57086,K2 Ti2 P2 S10,1.1736,1.2411,0.06750000000000012,jarvis_3d,jarvis,high,mp-560977,3D
JVASP-57088,Ga4 Pb2 O8,3.6246,5.0791,1.4545000000000003,jarvis_3d,jarvis,high,mp-561013,3D
JVASP-57093,Co2 F6,0.0093,0.0216,0.012300000000000002,jarvis_3d,jarvis,high,mp-561038,3D
JVASP-57094,Rb4 Sb8 S14,1.8761,2.7694,0.8933,jarvis_3d,jarvis,high,mp-561051,3D
JVASP-57096,Bi2 As2 O8,3.1902,4.2506,1.0604000000000005,jarvis_3d,jarvis,high,mp-561068,3D
JVASP-57098,Na2 Cd1 Sn1 S4,1.8538,3.3978,1.5440000000000003,jarvis_3d,jarvis,high,mp-561075,3D
JVASP-57099,Yb4 Pr2 Dy2 S12,1.0996,1.6338,0.5342,jarvis_3d,jarvis,high,mp-561096,3D
JVASP-57101,In4 Bi4 O12,2.5743,3.9353,1.3609999999999998,jarvis_3d,jarvis,high,mp-561102,3D
JVASP-57102,Ga2 I6 O18,3.2805,4.3465,1.0659999999999998,jarvis_3d,jarvis,high,mp-561104,3D
JVASP-57104,Zn8 S8,2.097,3.5965,1.4994999999999998,jarvis_3d,jarvis,high,mp-561118,3D
JVASP-57108,Nd6 Si4 S16 I2,2.5837,3.2564,0.6727000000000003,jarvis_3d,jarvis,high,mp-561126,3D
JVASP-57109,K4 Ge4 Pb2 S12,2.0407,2.8529,0.8121999999999998,jarvis_3d,jarvis,high,mp-561132,3D
JVASP-57117,Y6 Cu2 Si2 S14,1.8444,2.1974,0.353,jarvis_3d,jarvis,high,mp-561173,3D
JVASP-57122,Nd1 Ga3 B4 O12,4.7079,6.5464,1.8384999999999998,jarvis_3d,jarvis,high,mp-561187,3D
JVASP-57126,Ta4 F20,5.5501,7.1108,1.5607000000000006,jarvis_3d,jarvis,high,mp-561197,3D
JVASP-57128,Te4 O8,3.0407,4.6446,1.6038999999999994,jarvis_3d,jarvis,high,mp-561224,3D
JVASP-57132,Ba4 Ti2 O2 F12,3.8016,4.2716,0.4700000000000002,jarvis_3d,jarvis,high,mp-561256,3D
JVASP-57138,Si8 O16,5.3249,7.9945,2.6696,jarvis_3d,jarvis,high,mp-561291,3D
JVASP-57139,Sr1 Li2 Nb2 O7,1.5107,2.2,0.6893000000000002,jarvis_3d,jarvis,high,mp-561294,3D
JVASP-57140,Na2 Sb2 P4 S12,2.0196,2.6798,0.6602000000000001,jarvis_3d,jarvis,high,mp-561303,3D
JVASP-57142,Dy4 S4 Cl4,2.7222,3.8402,1.1179999999999999,jarvis_3d,jarvis,high,mp-561307,3D
JVASP-57149,Ca2 Cl4 O8,2.6686,4.1144,1.4457999999999998,jarvis_3d,jarvis,high,mp-561366,3D
JVASP-57155,Ca3 C3 O9,5.1039,6.9324,1.8285,jarvis_3d,jarvis,high,mp-561412,3D
JVASP-57159,K4 Al4 F16,7.298,10.7276,3.4296000000000006,jarvis_3d,jarvis,high,mp-561424,3D
JVASP-57163,Y4 Hf4 O14,3.4513,5.1734,1.7221000000000002,jarvis_3d,jarvis,high,mp-561442,3D
JVASP-57164,Ba3 P2 S8,1.9328,2.838,0.9052,jarvis_3d,jarvis,high,mp-561443,3D
JVASP-57165,Ba1 Ca1 Ga4 O8,3.2104,5.2606,2.0502000000000002,jarvis_3d,jarvis,high,mp-561446,3D