material_id,formula,pbe_bandgap,hse_bandgap,bandgap_correction,dataset,data_source,confidence,mpid,dimensionality
JVASP-10252,Zn4 O8,2.3793,3.7595,1.3801999999999999,jarvis_3d,jarvis,high,mp-8484,3D
JVASP-10253,N1 F6 S2 As1,2.4435,2.6842,0.24070000000000036,jarvis_3d,jarvis,high,mp-8500,3D
JVASP-10258,O4 Rb4 Ag4,1.5785,2.5089,0.9304000000000001,jarvis_3d,jarvis,high,mp-8603,3D
JVASP-10262,B2 O8 Nb2,2.5673,3.0129,0.4456000000000002,jarvis_3d,jarvis,high,mp-8615,3D
JVASP-10264,Sb4 Ir4 S4,1.4138,1.6191,0.20530000000000004,jarvis_3d,jarvis,high,mp-8630,3D
JVASP-10271,K6 Se8 Sb2,1.2239,2.305,1.0811000000000002,jarvis_3d,jarvis,high,mp-8704,3D
JVASP-10294,Rb2 Na4 B2 O6,3.4134,6.0139,2.6004999999999994,jarvis_3d,jarvis,high,mp-8872,3D
JVASP-10298,S8 K4 V2 Ag2,1.3514,1.4075,0.05610000000000004,jarvis_3d,jarvis,high,mp-8900,3D
JVASP-10301,Li6 B2 N4,3.784,3.8671,0.0831000000000004,jarvis_3d,jarvis,high,mp-8926,3D
JVASP-10302,K4 Ge2 As4,0.8228,1.7622,0.9394,jarvis_3d,jarvis,high,mp-8930,3D
JVASP-10303,As4 Rb4 Sn2,0.7573,1.7369,0.9796000000000001,jarvis_3d,jarvis,high,mp-8931,3D
JVASP-10325,Ca2 Ti4 O10,2.7723,3.3601,0.5878000000000001,jarvis_3d,jarvis,high,mvc-8202,3D
JVASP-10360,Sb4 O10,0.361,1.3658,1.0048,jarvis_3d,jarvis,high,mvc-8472,3D
JVASP-10367,Mg1 Sn4 O8,0.403,1.5469,1.1439,jarvis_3d,jarvis,high,mvc-8773,3D
JVASP-10371,Ca1 Sn4 O8,0.1745,1.1046,0.9301,jarvis_3d,jarvis,high,mvc-8797,3D
JVASP-10465,F8 Pt2,1.2969,1.6583,0.36140000000000017,jarvis_3d,jarvis,high,mp-8943,3D
JVASP-10471,K4 Cu2 Se8 Ta2,2.0247,2.1927,0.1679999999999997,jarvis_3d,jarvis,high,mp-8972,3D
JVASP-10472,N6 Na2 Si4,4.5577,5.6425,1.0848000000000004,jarvis_3d,jarvis,high,mp-8973,3D
JVASP-10474,Ta2 In2 O8,3.6756,5.1479,1.4722999999999997,jarvis_3d,jarvis,high,mp-8979,3D
JVASP-10475,K4 Cu2 Se8 Nb2,1.6666,1.7482,0.0815999999999999,jarvis_3d,jarvis,high,mp-9003,3D
JVASP-10478,Li6 O6 K1 Ta1,4.4358,5.6203,1.1844999999999999,jarvis_3d,jarvis,high,mp-9059,3D
JVASP-10480,Rb6 Se6,0.8713,2.1195,1.2482,jarvis_3d,jarvis,high,mp-9063,3D
JVASP-10481,Na2 Al2 K4 As4,1.2474,2.529,1.2815999999999999,jarvis_3d,jarvis,high,mp-9069,3D
JVASP-10485,Rb4 Sn2 Se6,1.6019,2.6826,1.0806999999999998,jarvis_3d,jarvis,high,mp-9145,3D
JVASP-10486,O6 Al2 K6,3.2592,5.7927,2.5335,jarvis_3d,jarvis,high,mp-9157,3D
JVASP-10489,Li8 O8 Ti2,4.5161,4.9097,0.39360000000000017,jarvis_3d,jarvis,high,mp-9172,3D
JVASP-10490,Ti4 O8,2.5236,2.9854,0.46179999999999977,jarvis_3d,jarvis,high,mp-9173,3D
JVASP-10496,Na4 Al4 O8,4.1454,6.5786,2.4331999999999994,jarvis_3d,jarvis,high,mp-9212,3D
JVASP-10500,Si4 O8,4.527,5.3395,0.8125,jarvis_3d,jarvis,high,mp-9258,3D
JVASP-10531,Na6 S4 Ag2,2.3013,3.4639,1.1626000000000003,jarvis_3d,jarvis,high,mp-9634,3D
JVASP-10533,Mg2 Ta4 O12,2.8932,4.1012,1.2080000000000002,jarvis_3d,jarvis,high,mp-9650,3D
JVASP-10537,B2 P4 K6,1.8312,2.7336,0.9024000000000001,jarvis_3d,jarvis,high,mp-9664,3D
JVASP-10538,B2 K6 As4,1.5434,2.4618,0.9184000000000001,jarvis_3d,jarvis,high,mp-9665,3D
JVASP-10539,Na2 P4 K4 Ga2,1.4396,2.4798,1.0402,jarvis_3d,jarvis,high,mp-9666,3D
JVASP-10544,K4 Na2 Ga2 As4,0.9461,2.122,1.1759,jarvis_3d,jarvis,high,mp-9676,3D
JVASP-10545,K4 Ge2 Se6,1.5894,2.6477,1.0583,jarvis_3d,jarvis,high,mp-9692,3D
JVASP-10550,B2 As4 Rb6,1.4751,2.4588,0.9837,jarvis_3d,jarvis,high,mp-9718,3D
JVASP-10551,B2 P4 Rb6,1.7117,2.7418,1.0301,jarvis_3d,jarvis,high,mp-9720,3D
JVASP-10554,O10 P2 Sb2,2.7472,3.7295,0.9823,jarvis_3d,jarvis,high,mp-9750,3D
JVASP-10556,O8 Ge2 Hf2,4.1708,6.0645,1.8937,jarvis_3d,jarvis,high,mp-9755,3D
JVASP-10562,Se8 Rb4 Nb2 Ag2,1.8321,2.0497,0.21760000000000002,jarvis_3d,jarvis,high,mp-9764,3D
JVASP-10563,Rb2 Hf2 Ag2 Te6,0.017,0.6531,0.6361,jarvis_3d,jarvis,high,mp-9780,3D
JVASP-10569,Ge2 Se6 Rb4,1.3506,2.3563,1.0057,jarvis_3d,jarvis,high,mp-9794,3D
JVASP-10570,K2 Sb4 Se8,1.1072,1.7723,0.6651,jarvis_3d,jarvis,high,mp-9797,3D
JVASP-10571,Rb2 Sb4 Se8,1.1425,1.7863,0.6437999999999999,jarvis_3d,jarvis,high,mp-9798,3D
JVASP-10573,C2 O6 Zn2,3.8696,5.9374,2.0678,jarvis_3d,jarvis,high,mp-9812,3D
JVASP-10580,Tm2 P10,0.2037,0.7082,0.5045000000000001,jarvis_3d,jarvis,high,mp-9852,3D
JVASP-10581,Lu2 P10,0.2016,0.7523,0.5507,jarvis_3d,jarvis,high,mp-9853,3D
JVASP-10582,Y2 P10,0.1981,0.664,0.46590000000000004,jarvis_3d,jarvis,high,mp-9854,3D
JVASP-10583,S6 K2 Cu2 Hf2,0.8065,1.148,0.3414999999999999,jarvis_3d,jarvis,high,mp-9855,3D
JVASP-10586,O6 Ag2 Ta2,1.8552,2.4138,0.5586000000000002,jarvis_3d,jarvis,high,mp-9890,3D
JVASP-10590,S8 K4 Pd6,1.139,1.1737,0.03469999999999995,jarvis_3d,jarvis,high,mp-9910,3D
JVASP-10591,Zn6 S6,2.1025,3.6359,1.5333999999999999,jarvis_3d,jarvis,high,mp-9946,3D
JVASP-10594,Al4 S8 Cd2,2.5533,3.3953,0.8420000000000001,jarvis_3d,jarvis,high,mp-9993,3D
JVASP-10598,Mg2 Ni4 O8,0.0102,0.0434,0.0332,jarvis_3d,jarvis,high,mvc-10006,3D
JVASP-10652,Ca2 Mn4 O8,0.0235,0.0296,0.006100000000000001,jarvis_3d,jarvis,high,mvc-9991,3D
JVASP-10662,Na4 S4 Pd2,1.0594,1.4905,0.43110000000000004,jarvis_3d,jarvis,high,mp-10223,3D
JVASP-10663,Na4 S4 Pt2,1.2698,1.8335,0.5636999999999999,jarvis_3d,jarvis,high,mp-10246,3D
JVASP-10666,B4 C4 Ca2,0.0578,1.0394,0.9816000000000001,jarvis_3d,jarvis,high,mp-10289,3D
JVASP-10669,Cu2 Y2 Te6 Ba2,0.638,0.8985,0.26049999999999995,jarvis_3d,jarvis,high,mp-10336,3D
JVASP-10670,Y2 Ag2 Te6 Ba2,0.8192,1.1094,0.2901999999999999,jarvis_3d,jarvis,high,mp-10337,3D
JVASP-10674,O10 Ta4,3.1766,4.2731,1.0965000000000003,jarvis_3d,jarvis,high,mp-10390,3D
JVASP-10683,Rb8 Sb8,0.0234,1.2345,1.2110999999999998,jarvis_3d,jarvis,high,mp-10487,3D
JVASP-10687,Ba2 Ga2 B2 O6 F4,5.2905,7.508,2.2175000000000002,jarvis_3d,jarvis,high,mp-10509,3D
JVASP-10693,K6 Sb2 O8,2.0695,3.642,1.5724999999999998,jarvis_3d,jarvis,high,mp-10543,3D
JVASP-10694,O4 Rb4 Au4,1.5377,2.4268,0.8891,jarvis_3d,jarvis,high,mp-10547,3D
JVASP-10698,Sm3 Au1 O6,1.8659,2.1521,0.2862,jarvis_3d,jarvis,high,mp-10560,3D
JVASP-10700,Rb4 Sb4 S8,1.9489,2.7951,0.8462000000000001,jarvis_3d,jarvis,high,mp-10621,3D
JVASP-10702,O6 Sb1 Ba2 Pr1,4.0514,5.0463,0.9948999999999995,jarvis_3d,jarvis,high,mp-10731,3D
JVASP-10704,K2 Sn1 As2 S6,1.0633,1.952,0.8887,jarvis_3d,jarvis,high,mp-10776,3D
JVASP-10707,B3 N6 Na1 Sr4,2.2016,3.5233,1.3216999999999999,jarvis_3d,jarvis,high,mp-10811,3D
JVASP-10708,Rb8 C8,3.7127,5.2649,1.5522,jarvis_3d,jarvis,high,mp-10821,3D
JVASP-10713,C4 N4 S4 Ba2,3.9115,4.698,0.7865000000000002,jarvis_3d,jarvis,high,mp-10928,3D
JVASP-10717,O5 S2 Ti2 Tb2,0.0214,1.0545,1.0331,jarvis_3d,jarvis,high,mp-10960,3D
JVASP-10718,Ag4 Sn2 Hg2 Se8,0.2284,0.4893,0.2609,jarvis_3d,jarvis,high,mp-10963,3D
JVASP-10720,Li4 Er4 O8,4.4391,6.4494,2.0103,jarvis_3d,jarvis,high,mp-10970,3D
JVASP-10723,C4 N4 S4 Ca2,3.4328,4.3863,0.9535000000000005,jarvis_3d,jarvis,high,mp-11009,3D
JVASP-10725,Rb2 Nd2 Te8,0.0191,0.913,0.8939,jarvis_3d,jarvis,high,mp-11011,3D
JVASP-10726,O2 F8 K4 Te2,4.8169,6.2338,1.4168999999999992,jarvis_3d,jarvis,high,mp-11014,3D
JVASP-10727,N3 O6 Rb1 Cd1,2.2337,3.5604,1.3267000000000002,jarvis_3d,jarvis,high,mp-11016,3D
JVASP-10736,Mg1 Sb4 O8,1.2684,2.1308,0.8623999999999998,jarvis_3d,jarvis,high,mvc-10706,3D
JVASP-10739,Mg1 Bi4 O8,0.0105,0.7987,0.7882,jarvis_3d,jarvis,high,mvc-10720,3D
JVASP-10773,K2 Pr2 Te8,0.0394,0.966,0.9266,jarvis_3d,jarvis,high,mp-11132,3D
JVASP-10775,Ba2 Zn2 C2 O6 F4,5.2085,6.7035,1.495,jarvis_3d,jarvis,high,mp-11166,3D
JVASP-10776,Ca3 P6 Ir6,0.0237,0.5094,0.48569999999999997,jarvis_3d,jarvis,high,mp-11168,3D
JVASP-10785,Li4 Ga4 Se8,2.0936,3.4193,1.3256999999999999,jarvis_3d,jarvis,high,mp-11582,3D
JVASP-10786,Zr4 S2 N4,0.8702,1.2718,0.40160000000000007,jarvis_3d,jarvis,high,mp-11583,3D
JVASP-10792,S8 K2 Cu2 Ho4,1.0454,1.3262,0.28079999999999994,jarvis_3d,jarvis,high,mp-11606,3D
JVASP-10793,N8 Si6,4.2817,5.3415,1.0598,jarvis_3d,jarvis,high,mp-11607,3D
JVASP-10795,S6 Ge2 Rb4,2.1517,3.3305,1.1787999999999998,jarvis_3d,jarvis,high,mp-11639,3D
JVASP-10804,Mn4 O8,0.0122,0.0238,0.011600000000000001,jarvis_3d,jarvis,high,mvc-11093,3D
JVASP-10806,Ti4 O8,2.3894,2.8388,0.4493999999999998,jarvis_3d,jarvis,high,mvc-11115,3D
JVASP-10808,Zn1 Co4 S8,0.0048,0.0124,0.0076,jarvis_3d,jarvis,high,mvc-11131,3D
JVASP-10840,Ca2 Cr4 O8,0.0104,0.0162,0.0058,jarvis_3d,jarvis,high,mvc-11560,3D
JVASP-10856,V4 O10,2.0172,2.4162,0.399,jarvis_3d,jarvis,high,mvc-11647,3D
JVASP-10862,Al4 Se6,1.9449,2.8458,0.9009,jarvis_3d,jarvis,high,mp-11674,3D
JVASP-10864,O8 Nd4 Hg2,2.2948,3.3158,1.021,jarvis_3d,jarvis,high,mp-11691,3D
JVASP-10869,O8 Si2 Zr2,4.2093,4.6901,0.48080000000000034,jarvis_3d,jarvis,high,mp-11736,3D
JVASP-10875,Al4 Ag4 O8,0.9847,2.3749,1.3901999999999997,jarvis_3d,jarvis,high,mp-11794,3D
JVASP-10879,Be4 N4 Sr2,2.1249,3.2024,1.0775000000000001,jarvis_3d,jarvis,high,mp-11919,3D
JVASP-10880,S8 Cu2 Rb4 Ta2,2.3985,2.6013,0.2028000000000003,jarvis_3d,jarvis,high,mp-11923,3D
JVASP-10883,Tb2 K2 Ge2 S8,2.3245,3.4115,1.0870000000000002,jarvis_3d,jarvis,high,mp-12011,3D
JVASP-10884,K2 Pr2 Ge2 Se8,1.5207,2.3081,0.7874000000000001,jarvis_3d,jarvis,high,mp-12012,3D
JVASP-10888,K3 Na1 Ru2 O8,1.0265,1.5409,0.5144,jarvis_3d,jarvis,high,mp-12047,3D
JVASP-10889,Te4 O10,1.8466,2.5944,0.7477999999999998,jarvis_3d,jarvis,high,mp-12177,3D
JVASP-10901,Ca1 Ti4 S8,0.001,0.0125,0.0115,jarvis_3d,jarvis,high,mvc-11739,3D
JVASP-10913,Ca2 Bi2 As2 O12,0.0846,0.812,0.7274,jarvis_3d,jarvis,high,mvc-11848,3D
JVASP-10914,Ti4 O8,1.7387,2.2515,0.5128000000000001,jarvis_3d,jarvis,high,mvc-11912,3D
JVASP-10962,F8 Cu2 Sr2,3.8802,6.3953,2.5151,jarvis_3d,jarvis,high,mp-12265,3D
JVASP-10969,S6 K2 Cu2 Th2,2.0258,2.3851,0.3593000000000002,jarvis_3d,jarvis,high,mp-12365,3D
JVASP-10970,N1 F6 S2 Sb1,2.539,2.7853,0.24629999999999974,jarvis_3d,jarvis,high,mp-12368,3D
JVASP-10973,C4 N4 Co1 Se4 Hg1,1.2741,2.1325,0.8583999999999998,jarvis_3d,jarvis,high,mp-12422,3D
JVASP-10976,Er4 Cu4 S8,1.7606,2.0709,0.3103,jarvis_3d,jarvis,high,mp-12454,3D
JVASP-10997,O6 Nb1 Ba2 Dy1,2.9227,3.6628,0.7401,jarvis_3d,jarvis,high,mp-12640,3D
JVASP-10998,O6 Nb1 Ba2 Ho1,2.921,3.6652,0.7442000000000002,jarvis_3d,jarvis,high,mp-12641,3D
JVASP-10999,O6 Nb1 Ba2 Tm1,2.9135,3.6472,0.7337000000000002,jarvis_3d,jarvis,high,mp-12642,3D
JVASP-11002,O8 Nb2 Tb2,3.4886,4.1636,0.6749999999999998,jarvis_3d,jarvis,high,mp-12647,3D
JVASP-11006,K4 Al4 O8,4.1523,6.4981,2.3457999999999997,jarvis_3d,jarvis,high,mp-12807,3D
JVASP-11012,Zn1 Cr4 S8,0.0022,0.0056,0.0034,jarvis_3d,jarvis,high,mvc-12347,3D
JVASP-11013,Ca2 Ti4 O10,2.9436,3.4551,0.5114999999999998,jarvis_3d,jarvis,high,mvc-12368,3D
JVASP-11017,Ti4 O8,2.6067,3.0119,0.4051999999999998,jarvis_3d,jarvis,high,mvc-12404,3D
JVASP-11020,Ca2 V4 O8,0.002,0.0042,0.0021999999999999997,jarvis_3d,jarvis,high,mvc-12553,3D
JVASP-11028,Ca2 Mn4 O8,0.003,0.004,0.001,jarvis_3d,jarvis,high,mvc-12576,3D
JVASP-11037,Mg4 Co4 O8,0.0096,0.0215,0.011899999999999999,jarvis_3d,jarvis,high,mvc-12619,3D
JVASP-11068,Be4 N4 Ba2,1.4038,2.4231,1.0192999999999999,jarvis_3d,jarvis,high,mp-12927,3D
JVASP-11073,O8 As2 Ho2,3.8217,5.3752,1.5535000000000005,jarvis_3d,jarvis,high,mp-12944,3D
JVASP-11076,Sn4 O8,1.2141,2.7082,1.4941000000000002,jarvis_3d,jarvis,high,mp-12978,3D
JVASP-11078,O6 Ba2 Ho1 Ta1,3.5311,4.6176,1.0865000000000005,jarvis_3d,jarvis,high,mp-13000,3D
JVASP-11082,O6 Sr2 Hf2,4.0962,5.6709,1.5747,jarvis_3d,jarvis,high,mp-13109,3D
JVASP-11084,O6 K4 Ti2,3.4593,4.102,0.6427000000000005,jarvis_3d,jarvis,high,mp-13133,3D
JVASP-11114,S6 Cu2 Sr2 Lu2,1.4579,1.8655,0.40759999999999996,jarvis_3d,jarvis,high,mp-13189,3D
JVASP-11117,Se6 Pr2 Lu2,0.1519,1.1334,0.9814999999999999,jarvis_3d,jarvis,high,mp-13326,3D
JVASP-11120,Sc5 Rb1 Te8,0.0027,0.6331,0.6304,jarvis_3d,jarvis,high,mp-13336,3D
JVASP-11123,O6 Sr1 Te1 Ba2,3.4292,4.4228,0.9935999999999998,jarvis_3d,jarvis,high,mp-13356,3D
JVASP-11128,O8 As2 Sm2,3.9364,5.3789,1.4425,jarvis_3d,jarvis,high,mp-13530,3D
JVASP-11129,K2 Pr2 Si2 Se8,2.1189,2.8818,0.7629000000000001,jarvis_3d,jarvis,high,mp-13538,3D
JVASP-11132,Nd4 S8,0.216,1.2492,1.0332000000000001,jarvis_3d,jarvis,high,mp-13568,3D
JVASP-11135,O6 Ti2 Cd2,2.9572,3.7106,0.7534000000000001,jarvis_3d,jarvis,high,mp-13641,3D
JVASP-11136,Rb2 N2 O6,3.1047,4.1463,1.0416000000000003,jarvis_3d,jarvis,high,mp-13658,3D
JVASP-11137,P4 S12 Ti2,1.3364,1.4726,0.13619999999999988,jarvis_3d,jarvis,high,mp-13666,3D
JVASP-11141,O6 K6 Ga2,2.898,5.203,2.305,jarvis_3d,jarvis,high,mp-13743,3D
JVASP-11143,F6 Na1 K2 Cu1,5.7862,8.8326,3.0463999999999993,jarvis_3d,jarvis,high,mp-13797,3D
JVASP-11145,O6 Mg1 Ba2 U1,2.1958,2.3025,0.10670000000000002,jarvis_3d,jarvis,high,mp-13811,3D
JVASP-11152,F8 Pd2,0.7665,0.9159,0.1494000000000001,jarvis_3d,jarvis,high,mp-13868,3D
JVASP-11160,O8 Ge2 Hg4,1.0939,2.2884,1.1945000000000001,jarvis_3d,jarvis,high,mp-13995,3D
JVASP-11166,O8 Rh4 Cd2,0.9284,1.2262,0.29779999999999995,jarvis_3d,jarvis,high,mp-14100,3D
JVASP-11168,O8 Nb2 Sm2,3.5002,4.1913,0.6911,jarvis_3d,jarvis,high,mp-14152,3D
JVASP-11172,Th2 P4 S12,2.5876,3.0894,0.5017999999999998,jarvis_3d,jarvis,high,mp-14249,3D
JVASP-11175,P8 Sr6,0.8598,1.2494,0.38960000000000006,jarvis_3d,jarvis,high,mp-14288,3D
JVASP-11177,O6 Sb1 Ba2 Nd1,4.0225,5.0527,1.0301999999999998,jarvis_3d,jarvis,high,mp-14292,3D
JVASP-11178,Mg2 S8 Lu4,2.0294,2.972,0.9426000000000001,jarvis_3d,jarvis,high,mp-14304,3D
JVASP-11183,O8 Al2 Ta2,4.0969,5.2685,1.1716000000000006,jarvis_3d,jarvis,high,mp-14333,3D
JVASP-11190,B2 O6 Ca1 Sn1,3.9786,5.6077,1.6291000000000002,jarvis_3d,jarvis,high,mp-14398,3D
JVASP-11192,N6 Na2 Ge4,2.4791,3.8184,1.3393000000000002,jarvis_3d,jarvis,high,mp-14433,3D
JVASP-11193,S6 K6 Ge2,2.3956,3.6432,1.2476000000000003,jarvis_3d,jarvis,high,mp-14434,3D
JVASP-11194,K6 Ge2 Se6,1.8105,2.8527,1.0422,jarvis_3d,jarvis,high,mp-14435,3D
JVASP-11202,K10 Cu2 As4,0.3653,1.5146,1.1493,jarvis_3d,jarvis,high,mp-14623,3D
JVASP-11206,V2 Se8 Rb4 Ag2,1.092,1.1541,0.06209999999999982,jarvis_3d,jarvis,high,mp-14635,3D
JVASP-11207,S8 Rb4 Nb2 Ag2,2.2201,2.4511,0.23099999999999987,jarvis_3d,jarvis,high,mp-14636,3D
JVASP-11211,Ag1 Sb2 F12,2.995,4.8754,1.8803999999999998,jarvis_3d,jarvis,high,mp-14653,3D
JVASP-11273,Al2 Bi2 O6,0.9582,1.8509,0.8926999999999999,jarvis_3d,jarvis,high,mvc-13972,3D
JVASP-11286,Ca2 Ti4 S10,0.8187,0.9389,0.12019999999999997,jarvis_3d,jarvis,high,mvc-14054,3D
JVASP-11300,Mg2 Sn2 F8,3.6983,4.7225,1.0242,jarvis_3d,jarvis,high,mvc-14195,3D
JVASP-11310,Mg2 W2 F10,0.0032,0.0497,0.0465,jarvis_3d,jarvis,high,mvc-14224,3D
JVASP-11311,Ca2 V2 F10,0.042,0.1126,0.0706,jarvis_3d,jarvis,high,mvc-14225,3D
JVASP-11314,Ca2 Fe2 F8,0.2525,4.7792,4.5267,jarvis_3d,jarvis,high,mvc-14231,3D
JVASP-11321,Zn2 Sb2 F10,4.1221,6.1564,2.0343,jarvis_3d,jarvis,high,mvc-14279,3D
JVASP-11324,Mg2 Ti3 O8,2.498,2.9926,0.4945999999999997,jarvis_3d,jarvis,high,mvc-14293,3D
JVASP-11344,Al2 Sb2 O6,0.2674,0.8666,0.5992,jarvis_3d,jarvis,high,mvc-14411,3D
JVASP-11355,Zn4 Sn4 O8,1.8179,2.8422,1.0243,jarvis_3d,jarvis,high,mvc-14586,3D
JVASP-11356,Cr4 O8,0.0063,0.0284,0.0221,jarvis_3d,jarvis,high,mvc-14589,3D
JVASP-11361,S6 Tm4,2.5834,3.4153,0.8318999999999996,jarvis_3d,jarvis,high,mp-14787,3D
JVASP-11363,Se6 Rb2 Pt4,1.1259,1.4664,0.3405,jarvis_3d,jarvis,high,mp-14797,3D
JVASP-11366,O6 Al2 Rb6,3.054,5.0204,1.9664000000000006,jarvis_3d,jarvis,high,mp-14951,3D
JVASP-11367,S6 Cu2 Ba2 Er2,1.2611,1.6319,0.3707999999999998,jarvis_3d,jarvis,high,mp-14969,3D
JVASP-11375,S8 K4 Nb2 Ag2,2.1764,2.402,0.22560000000000002,jarvis_3d,jarvis,high,mp-15214,3D
JVASP-11376,S8 K4 Ag2 Ta2,2.5502,3.0712,0.5210000000000004,jarvis_3d,jarvis,high,mp-15216,3D
JVASP-11377,S8 Rb4 Ag2 Ta2,2.5969,3.0237,0.4267999999999996,jarvis_3d,jarvis,high,mp-15217,3D
JVASP-11382,Cu2 Se8 Rb4 Nb2,1.7062,1.8032,0.09699999999999998,jarvis_3d,jarvis,high,mp-15222,3D
JVASP-11390,As6 Rb4,0.0082,0.7919,0.7837000000000001,jarvis_3d,jarvis,high,mp-15556,3D
JVASP-11392,Na6 S4 Au2,2.436,3.8482,1.4122,jarvis_3d,jarvis,high,mp-15567,3D
JVASP-11393,K6 Se4 Au2,2.1886,3.5434,1.3548,jarvis_3d,jarvis,high,mp-15571,3D
JVASP-11395,Al8 Sb8,0.0368,0.3929,0.3561,jarvis_3d,jarvis,high,mp-15621,3D
JVASP-11397,Sr4 Mg4 Ge4,0.0105,0.3386,0.3281,jarvis_3d,jarvis,high,mp-15643,3D
JVASP-11398,As8 Ir4,0.826,0.9996,0.1736000000000001,jarvis_3d,jarvis,high,mp-15649,3D
JVASP-11400,O10 Al2 Ca2 Ta2,3.9293,5.2103,1.2810000000000001,jarvis_3d,jarvis,high,mp-15733,3D
JVASP-11401,O8 F2 Al2 Sr6,4.6613,6.3654,1.7041000000000004,jarvis_3d,jarvis,high,mp-15736,3D
JVASP-11408,Li8 N4 Sr2,1.1713,2.4879,1.3165999999999998,jarvis_3d,jarvis,high,mp-15845,3D
JVASP-11415,S8 V2 Cu4 Rb2,1.1071,1.124,0.016900000000000137,jarvis_3d,jarvis,high,mp-15998,3D
JVASP-11431,Ba4 Ca4 Si4,0.0337,0.3795,0.3458,jarvis_3d,jarvis,high,mp-16253,3D
JVASP-11433,S8 Cd2 Dy4,1.065,2.1725,1.1075,jarvis_3d,jarvis,high,mp-16267,3D
JVASP-11478,O8 V2 Ho2,2.7743,3.2964,0.5221,jarvis_3d,jarvis,high,mp-18734,3D
JVASP-11485,O3 F3 Na3 Mo1,3.955,4.9484,0.9934000000000003,jarvis_3d,jarvis,high,mp-18753,3D
JVASP-11490,O6 Na8 Co2,0.7733,2.1309,1.3576000000000001,jarvis_3d,jarvis,high,mp-18762,3D
JVASP-11504,Ba2 Ti3 O8,1.2355,1.7171,0.48160000000000003,jarvis_3d,jarvis,high,mvc-14876,3D
JVASP-11507,Mo4 O12,2.2525,2.703,0.4504999999999999,jarvis_3d,jarvis,high,mvc-14941,3D
JVASP-11523,Sb2 F8,2.4377,3.1171,0.6794000000000002,jarvis_3d,jarvis,high,mvc-15178,3D
JVASP-11550,Ca4 Sn2 N4,0.8344,1.4449,0.6105,jarvis_3d,jarvis,high,mvc-15566,3D
JVASP-11555,Ca4 Mn4 O8,0.0039,0.0051,0.0012000000000000005,jarvis_3d,jarvis,high,mvc-15601,3D
JVASP-11559,Mg2 Sn3 O8,2.3992,4.0896,1.6904,jarvis_3d,jarvis,high,mvc-15812,3D
JVASP-11560,Ti2 Zn2 F10,0.0001,0.0462,0.046099999999999995,jarvis_3d,jarvis,high,mvc-15814,3D
JVASP-11570,Y2 Bi2 O6,2.3557,3.146,0.7902999999999998,jarvis_3d,jarvis,high,mvc-15941,3D
JVASP-11574,Mo3 O8,0.252,0.5884,0.33640000000000003,jarvis_3d,jarvis,high,mvc-15991,3D
JVASP-11593,Ca1 V4 O10,0.0057,0.0072,0.0014999999999999996,jarvis_3d,jarvis,high,mvc-16060,3D
JVASP-11597,Al5 Cu1 S8,1.5852,1.8174,0.23219999999999996,jarvis_3d,jarvis,high,mvc-16094,3D
JVASP-11605,Al2 Co4 O8,0.0019,0.0022,0.00030000000000000014,jarvis_3d,jarvis,high,mvc-16230,3D
JVASP-11610,Ti1 Zn1 Bi2 O6,1.6893,2.5866,0.8972999999999998,jarvis_3d,jarvis,high,mvc-16271,3D
JVASP-11611,Zn2 Cu1 As2 O8,1.2451,2.7112,1.4660999999999997,jarvis_3d,jarvis,high,mvc-16274,3D
JVASP-11614,Ti1 Zn1 Bi2 O6,2.0479,3.1546,1.1067,jarvis_3d,jarvis,high,mvc-16291,3D
JVASP-11633,Ca2 Bi4 O8,1.6888,3.6785,1.9897,jarvis_3d,jarvis,high,mvc-16497,3D
JVASP-11662,O8 Na4 Cr2,2.6469,3.0525,0.4056000000000002,jarvis_3d,jarvis,high,mp-18779,3D
JVASP-11664,O8 Cr2 Cd2,2.0366,2.4679,0.43130000000000024,jarvis_3d,jarvis,high,mp-18781,3D
JVASP-11669,O8 Na4 W2,1.8209,5.9908,4.1699,jarvis_3d,jarvis,high,mp-18803,3D
JVASP-11671,O7 V2 Zn2,1.9636,2.3969,0.4333,jarvis_3d,jarvis,high,mp-18807,3D
JVASP-11673,O8 V2 Nd2,2.8207,3.3457,0.5249999999999999,jarvis_3d,jarvis,high,mp-18812,3D
JVASP-11680,O6 Zn1 Sr2 Mo1,2.1361,2.7356,0.5994999999999999,jarvis_3d,jarvis,high,mp-18829,3D
JVASP-11681,Sr2 Mo2 O8,3.7036,4.2734,0.5697999999999999,jarvis_3d,jarvis,high,mp-18834,3D
JVASP-11683,K1 Sc1 Mo2 O8,3.6034,4.195,0.5916000000000001,jarvis_3d,jarvis,high,mp-18837,3D
JVASP-11688,O8 Na4 Mo2,4.3712,4.918,0.5468000000000002,jarvis_3d,jarvis,high,mp-18852,3D
JVASP-11695,Mg2 W2 O8,0.6582,4.1778,3.5196000000000005,jarvis_3d,jarvis,high,mp-18875,3D
JVASP-11699,Er2 V2 O8,2.4843,2.8662,0.3818999999999999,jarvis_3d,jarvis,high,mp-18880,3D
JVASP-11700,O8 K1 Cr4,0.0007,0.001,0.00030000000000000003,jarvis_3d,jarvis,high,mp-18881,3D
JVASP-11706,O8 V2 Ag2 Hg2,1.2548,1.9532,0.6984000000000001,jarvis_3d,jarvis,high,mp-18901,3D
JVASP-11724,Na2 V2 O4 F4,2.1254,2.6976,0.5722,jarvis_3d,jarvis,high,mp-18953,3D
JVASP-11725,O8 Cr2 Sm2,0.0107,0.0111,0.00040000000000000105,jarvis_3d,jarvis,high,mp-18956,3D
JVASP-11726,O8 V2 Er2,2.7673,3.2858,0.5185,jarvis_3d,jarvis,high,mp-18960,3D
JVASP-11727,O6 Ca1 Sr2 Mo1,2.0977,2.7915,0.6938,jarvis_3d,jarvis,high,mp-18962,3D
JVASP-11735,Li4 O6 Mn2,0.0012,0.0018,0.0006000000000000001,jarvis_3d,jarvis,high,mp-18988,3D
JVASP-11738,O8 V2 Lu2,2.7467,3.2609,0.5141999999999998,jarvis_3d,jarvis,high,mp-18993,3D
JVASP-11747,O8 Cr2 Yb2,2.1025,2.6085,0.5059999999999998,jarvis_3d,jarvis,high,mp-19023,3D