material_id,formula,pbe_bandgap,hse_bandgap,bandgap_correction,dataset,data_source,confidence,mpid,dimensionality
JVASP-1103,Te1 Pb1,1.1187,1.4049,0.2862,jarvis_3d,jarvis,high,mp-19717,3D
JVASP-1136,F2 Ba1,6.8192,9.2842,2.465,jarvis_3d,jarvis,high,mp-1029,3D
JVASP-1142,Dy4 Sc4 O12,4.4613,5.3774,0.9161000000000001,jarvis_3d,jarvis,high,mp-31120,3D
JVASP-1127,K1 Ta1 O3,2.2284,3.3263,1.0978999999999997,jarvis_3d,jarvis,high,mp-3614,3D
JVASP-1157,Ge1 Te1,0.7206,0.8241,0.10350000000000004,jarvis_3d,jarvis,high,mp-938,3D
JVASP-1145,Cl1 K1,5.3263,8.394,3.0677000000000003,jarvis_3d,jarvis,high,mp-23193,3D
JVASP-931,Na2,0.0031,0.0443,0.0412,jarvis_3d,jarvis,high,mp-10172,3D
JVASP-802,Hf2,0.0065,0.0131,0.006600000000000001,jarvis_3d,jarvis,high,mp-103,3D
JVASP-993,Sb2,0.0083,0.0315,0.0232,jarvis_3d,jarvis,high,mp-104,3D
JVASP-1050,Y2,0.0045,0.0074,0.0029000000000000007,jarvis_3d,jarvis,high,mp-112,3D
JVASP-1020,Tc2,0.0021,0.003,0.0009000000000000002,jarvis_3d,jarvis,high,mp-113,3D
JVASP-1008,Sn2,0.0412,0.2424,0.2012,jarvis_3d,jarvis,high,mp-117,3D
JVASP-822,As2,0.0062,0.0344,0.0282,jarvis_3d,jarvis,high,mp-11,3D
JVASP-949,O8,1.1272,2.0845,0.9572999999999998,jarvis_3d,jarvis,high,mp-12957,3D
JVASP-846,Ca2,0.0091,0.0216,0.0125,jarvis_3d,jarvis,high,mp-132,3D
JVASP-816,Al1,0.007,0.0104,0.0033999999999999994,jarvis_3d,jarvis,high,mp-134,3D
JVASP-885,Ga4,0.0023,0.0139,0.0116,jarvis_3d,jarvis,high,mp-142,3D
JVASP-808,Ho2,0.0018,0.002,0.0002000000000000001,jarvis_3d,jarvis,high,mp-144,3D
JVASP-1041,V1,0.0037,0.0099,0.006200000000000001,jarvis_3d,jarvis,high,mp-146,3D
JVASP-1002,Si2,0.7314,1.2764,0.5449999999999999,jarvis_3d,jarvis,high,mp-149,3D
JVASP-828,B12,1.6875,1.7865,0.09899999999999998,jarvis_3d,jarvis,high,mp-160,3D
JVASP-1023,Te3,0.0275,0.6165,0.5890000000000001,jarvis_3d,jarvis,high,mp-19,3D
JVASP-855,Cl4,2.3223,3.7461,1.4238000000000004,jarvis_3d,jarvis,high,mp-22848,3D
JVASP-837,Bi2,0.0131,0.0392,0.026099999999999998,jarvis_3d,jarvis,high,mp-23152,3D
JVASP-895,I4,0.9087,1.6126,0.7039000000000001,jarvis_3d,jarvis,high,mp-23153,3D
JVASP-840,Br4,1.3099,2.4324,1.1224999999999998,jarvis_3d,jarvis,high,mp-23154,3D
JVASP-819,Ar1,8.717,13.6387,4.9216999999999995,jarvis_3d,jarvis,high,mp-23155,3D
JVASP-890,Ge2,0.0128,0.6063,0.5934999999999999,jarvis_3d,jarvis,high,mp-32,3D
JVASP-969,Pr4,0.0009,0.0014,0.0005,jarvis_3d,jarvis,high,mp-38,3D
JVASP-907,Kr1,7.2602,10.8329,3.5727,jarvis_3d,jarvis,high,mp-612118,3D
JVASP-984,Rh1,0.0106,0.0152,0.0046,jarvis_3d,jarvis,high,mp-74,3D
JVASP-1056,Zn2,0.0027,0.0057,0.003,jarvis_3d,jarvis,high,mp-79,3D
JVASP-834,Be2,0.0086,0.0258,0.0172,jarvis_3d,jarvis,high,mp-87,3D
JVASP-861,Cr1,0.0017,0.0064,0.0047,jarvis_3d,jarvis,high,mp-90,3D
JVASP-849,Cd2,0.0016,0.0035,0.0019,jarvis_3d,jarvis,high,mp-94,3D
JVASP-807,Hg2,0.28,0.2829,0.002899999999999958,jarvis_3d,jarvis,high,mp-975272,3D
JVASP-25044,Fe1,0.0007,0.0031,0.0024,jarvis_3d,jarvis,high,mp-150,3D
JVASP-25047,P2,0.0008,0.0068,0.005999999999999999,jarvis_3d,jarvis,high,mp-130,3D
JVASP-25048,Ge12,0.1509,0.7914,0.6405,jarvis_3d,jarvis,high,mp-137,3D
JVASP-25055,C4,2.8506,3.7268,0.8761999999999999,jarvis_3d,jarvis,high,mp-1008395,3D
JVASP-25062,Cu1,0.0007,0.0007,0.0,jarvis_3d,jarvis,high,mp-1010136,3D
JVASP-25071,C2,0.0262,0.0619,0.035699999999999996,jarvis_3d,jarvis,high,mp-1040425,3D
JVASP-25073,Sb1,0.0017,0.0048,0.0030999999999999995,jarvis_3d,jarvis,high,mp-10630,3D
JVASP-25075,Te2,0.0053,0.0083,0.003,jarvis_3d,jarvis,high,mp-10654,3D
JVASP-25079,Er1,0.0115,0.0261,0.014600000000000002,jarvis_3d,jarvis,high,mp-10752,3D
JVASP-25080,Ho1,0.0006,0.0083,0.0077,jarvis_3d,jarvis,high,mp-10765,3D
JVASP-25084,W8,0.0163,0.0186,0.0023,jarvis_3d,jarvis,high,mp-11334,3D
JVASP-25087,P24,2.778,3.2584,0.48039999999999994,jarvis_3d,jarvis,high,mp-118,3D
JVASP-25093,Sr2,0.0007,0.0114,0.010700000000000001,jarvis_3d,jarvis,high,mp-139,3D
JVASP-25094,Si4,0.0,0.0003,0.0003,jarvis_3d,jarvis,high,mp-1001113,3D
JVASP-25100,Ge4,0.0068,0.4683,0.4615,jarvis_3d,jarvis,high,mp-1007760,3D
JVASP-25101,Ga4,0.0005,0.0036,0.0031,jarvis_3d,jarvis,high,mp-1007857,3D
JVASP-25102,F4,2.6227,3.7725,1.1498,jarvis_3d,jarvis,high,mp-1007866,3D
JVASP-25104,Cl4,2.3189,3.7327,1.4137999999999997,jarvis_3d,jarvis,high,mp-1008394,3D
JVASP-25105,Ca4,0.0002,0.0007,0.0005,jarvis_3d,jarvis,high,mp-1008498,3D
JVASP-25106,Au2,0.0078,0.0118,0.004,jarvis_3d,jarvis,high,mp-1008634,3D
JVASP-25107,Sc1,0.0073,0.01,0.0027,jarvis_3d,jarvis,high,mp-1008681,3D
JVASP-25109,O2,0.0006,2.8921,2.8915,jarvis_3d,jarvis,high,mp-1009490,3D
JVASP-25114,K1,0.0156,0.0429,0.0273,jarvis_3d,jarvis,high,mp-10157,3D
JVASP-25115,Hg1,0.0038,0.0292,0.0254,jarvis_3d,jarvis,high,mp-1017981,3D
JVASP-25116,C4,0.0079,0.4679,0.45999999999999996,jarvis_3d,jarvis,high,mp-1018088,3D
JVASP-25119,O6,2.1779,3.5984,1.4204999999999997,jarvis_3d,jarvis,high,mp-1023923,3D
JVASP-25121,Ag2,0.0041,0.0154,0.011300000000000001,jarvis_3d,jarvis,high,mp-10597,3D
JVASP-25122,Sr2,0.0074,0.0155,0.0081,jarvis_3d,jarvis,high,mp-10617,3D
JVASP-25126,Tm1,0.0575,0.1086,0.0511,jarvis_3d,jarvis,high,mp-10661,3D
JVASP-25131,S1,0.0023,0.0205,0.0182,jarvis_3d,jarvis,high,mp-10869,3D
JVASP-25132,Si4,0.0002,0.0002,0.0,jarvis_3d,jarvis,high,mp-109,3D
JVASP-25134,Th1,0.0052,0.0054,0.00020000000000000052,jarvis_3d,jarvis,high,mp-11343,3D
JVASP-25135,Tb1,0.036,0.0363,0.00030000000000000165,jarvis_3d,jarvis,high,mp-11446,3D
JVASP-25137,Se1,0.0026,0.0222,0.0196,jarvis_3d,jarvis,high,mp-119,3D
JVASP-25140,Na1,0.0122,0.0476,0.0354,jarvis_3d,jarvis,high,mp-127,3D
JVASP-25142,Fe2,0.0013,0.0023,0.001,jarvis_3d,jarvis,high,mp-136,3D
JVASP-25143,Ga1,0.0015,0.0029,0.0013999999999999998,jarvis_3d,jarvis,high,mp-140,3D
JVASP-25151,Si8,0.0482,0.2105,0.1623,jarvis_3d,jarvis,high,mp-168,3D
JVASP-25154,Tb2,0.001,0.0011,0.00010000000000000005,jarvis_3d,jarvis,high,mp-18,3D
JVASP-25155,Sr6,0.0015,0.0103,0.0088,jarvis_3d,jarvis,high,mp-19858,3D
JVASP-25162,Be1,0.0064,0.0092,0.0027999999999999995,jarvis_3d,jarvis,high,mp-20,3D
JVASP-25166,Pb1,0.0082,0.0101,0.001899999999999999,jarvis_3d,jarvis,high,mp-22692,3D
JVASP-25168,Bi2,0.0005,0.0012,0.0006999999999999999,jarvis_3d,jarvis,high,mp-23157,3D
JVASP-25170,H4,8.5906,13.5252,4.9346,jarvis_3d,jarvis,high,mp-24504,3D
JVASP-25174,Si1,0.0034,0.0042,0.0007999999999999999,jarvis_3d,jarvis,high,mp-34,3D
JVASP-25177,Zr1,0.0105,0.0119,0.0014000000000000002,jarvis_3d,jarvis,high,mp-41,3D
JVASP-25181,Ti2,0.0086,0.0129,0.0043,jarvis_3d,jarvis,high,mp-46,3D
JVASP-25186,P2,0.0001,0.0007,0.0006,jarvis_3d,jarvis,high,mp-53,3D
JVASP-25188,Se32,1.2325,2.1632,0.9306999999999999,jarvis_3d,jarvis,high,mp-542461,3D
JVASP-25189,Se32,1.1229,1.9829,0.8600000000000001,jarvis_3d,jarvis,high,mp-542605,3D
JVASP-25191,Mn20,0.0037,0.0107,0.006999999999999999,jarvis_3d,jarvis,high,mp-542909,3D
JVASP-25192,S9,1.958,2.9665,1.0085,jarvis_3d,jarvis,high,mp-555760,3D
JVASP-25202,Sn1,0.0007,0.0043,0.0036,jarvis_3d,jarvis,high,mp-55,3D
JVASP-25204,F4,2.5908,3.7495,1.1586999999999996,jarvis_3d,jarvis,high,mp-561203,3D
JVASP-25205,F4,2.2984,3.6086,1.3102,jarvis_3d,jarvis,high,mp-561367,3D
JVASP-25208,Sb4,0.0002,0.0007,0.0005,jarvis_3d,jarvis,high,mp-567144,3D
JVASP-25210,Te3,0.0282,0.6144,0.5861999999999999,jarvis_3d,jarvis,high,mp-567313,3D
JVASP-25213,Kr2,7.2577,10.8271,3.5694,jarvis_3d,jarvis,high,mp-567365,3D
JVASP-25217,Bi2,0.0231,0.0255,0.0023999999999999994,jarvis_3d,jarvis,high,mp-567597,3D
JVASP-25219,Na8,0.01,0.0115,0.0014999999999999996,jarvis_3d,jarvis,high,mp-567772,3D
JVASP-25220,Sr4,0.0008,0.0027,0.0019000000000000002,jarvis_3d,jarvis,high,mp-567826,3D
JVASP-25222,Bi4,0.0004,0.0011,0.0007000000000000001,jarvis_3d,jarvis,high,mp-568087,3D
JVASP-25223,Ar2,8.7123,13.6528,4.940499999999998,jarvis_3d,jarvis,high,mp-568145,3D
JVASP-25224,Fe6,0.0003,0.0007,0.0004,jarvis_3d,jarvis,high,mp-568345,3D
JVASP-25225,C8,0.3855,0.8706,0.48510000000000003,jarvis_3d,jarvis,high,mp-568410,3D
JVASP-25226,N16,7.0726,9.1605,2.0879000000000003,jarvis_3d,jarvis,high,mp-568584,3D
JVASP-25229,C8,0.02,0.0478,0.027800000000000002,jarvis_3d,jarvis,high,mp-568806,3D
JVASP-25232,Hg1,0.0182,0.2646,0.2464,jarvis_3d,jarvis,high,mp-569289,3D
JVASP-25235,Hg3,0.0545,0.1034,0.048900000000000006,jarvis_3d,jarvis,high,mp-569360,3D
JVASP-25238,C10,4.7965,5.3229,0.5263999999999998,jarvis_3d,jarvis,high,mp-569517,3D
JVASP-25243,C8,3.0909,4.0525,0.9616000000000002,jarvis_3d,jarvis,high,mp-570002,3D
JVASP-25247,Te3,0.0141,0.0142,0.00010000000000000113,jarvis_3d,jarvis,high,mp-570459,3D
JVASP-25250,N4,6.6755,8.7581,2.0826000000000002,jarvis_3d,jarvis,high,mp-570747,3D
JVASP-25253,Tb6,0.0021,0.041,0.038900000000000004,jarvis_3d,jarvis,high,mp-571249,3D
JVASP-25255,Si8,0.0708,0.4656,0.39480000000000004,jarvis_3d,jarvis,high,mp-571520,3D
JVASP-25258,C8,0.017,3.9856,3.9686,jarvis_3d,jarvis,high,mp-579909,3D
JVASP-25264,K4,0.0076,0.0088,0.0012000000000000005,jarvis_3d,jarvis,high,mp-604318,3D
JVASP-25270,O2,0.0015,0.4375,0.436,jarvis_3d,jarvis,high,mp-607540,3D
JVASP-25272,O2,0.0039,0.004,0.00010000000000000026,jarvis_3d,jarvis,high,mp-610917,3D
JVASP-25274,C8,4.9027,5.4301,0.5274000000000001,jarvis_3d,jarvis,high,mp-611426,3D
JVASP-25275,C12,4.7379,5.2096,0.47170000000000023,jarvis_3d,jarvis,high,mp-611448,3D
JVASP-25277,O2,0.0159,3.5091,3.4932000000000003,jarvis_3d,jarvis,high,mp-611836,3D
JVASP-25280,C16,4.6968,5.1718,0.47500000000000053,jarvis_3d,jarvis,high,mp-616440,3D
JVASP-25289,C2,0.0747,2.1327,2.058,jarvis_3d,jarvis,high,mp-632329,3D
JVASP-25290,B12,0.0027,0.0038,0.0010999999999999998,jarvis_3d,jarvis,high,mp-632401,3D
JVASP-25291,H1,0.0163,0.0185,0.0022000000000000006,jarvis_3d,jarvis,high,mp-634659,3D
JVASP-25295,I1,0.0001,0.0002,0.0001,jarvis_3d,jarvis,high,mp-639751,3D
JVASP-25300,Si8,0.0095,0.0503,0.040799999999999996,jarvis_3d,jarvis,high,mp-644693,3D
JVASP-25307,N4,6.839,9.0417,2.2027,jarvis_3d,jarvis,high,mp-672233,3D
JVASP-25319,Ti1,0.0089,0.0339,0.025,jarvis_3d,jarvis,high,mp-6985,3D
JVASP-25320,Ta1,0.0138,0.0371,0.0233,jarvis_3d,jarvis,high,mp-6986,3D
JVASP-25323,Tb1,0.0053,0.0075,0.0021999999999999997,jarvis_3d,jarvis,high,mp-7163,3D
JVASP-25326,P2,0.0036,0.0531,0.0495,jarvis_3d,jarvis,high,mp-7245,3D
JVASP-25331,Se1,0.0025,0.0058,0.0032999999999999995,jarvis_3d,jarvis,high,mp-7755,3D
JVASP-25341,Ag4,0.0058,0.0159,0.010100000000000001,jarvis_3d,jarvis,high,mp-8566,3D
JVASP-25343,Cr1,0.0081,0.0192,0.011099999999999999,jarvis_3d,jarvis,high,mp-8633,3D
JVASP-25347,Mo1,0.0079,0.0114,0.0034999999999999996,jarvis_3d,jarvis,high,mp-8637,3D
JVASP-25349,Ru1,0.001,0.0038,0.0028,jarvis_3d,jarvis,high,mp-8639,3D
JVASP-25351,W1,0.0056,0.0176,0.012,jarvis_3d,jarvis,high,mp-8641,3D
JVASP-25352,Re1,0.0054,0.0256,0.020200000000000003,jarvis_3d,jarvis,high,mp-8642,3D
JVASP-25353,Os1,0.0032,0.0043,0.0010999999999999998,jarvis_3d,jarvis,high,mp-8643,3D
JVASP-25356,Sr4,0.0022,0.0036,0.0013999999999999998,jarvis_3d,jarvis,high,mp-867202,3D
JVASP-25367,Sr1,0.0098,0.0159,0.006100000000000001,jarvis_3d,jarvis,high,mp-95,3D
JVASP-25368,Si23,1.3603,1.9343,0.5739999999999998,jarvis_3d,jarvis,high,mp-971661,3D
JVASP-25371,Tl3,0.0018,0.0072,0.0054,jarvis_3d,jarvis,high,mp-972351,3D
JVASP-25374,K2,0.0041,0.0045,0.0003999999999999993,jarvis_3d,jarvis,high,mp-972981,3D
JVASP-25376,Na3,0.001,0.0038,0.0028,jarvis_3d,jarvis,high,mp-973198,3D
JVASP-25382,Kr1,7.2452,10.8869,3.641700000000001,jarvis_3d,jarvis,high,mp-974400,3D
JVASP-25383,Na1,0.0013,0.003,0.0017000000000000001,jarvis_3d,jarvis,high,mp-974558,3D
JVASP-25385,Nd3,0.0022,0.0046,0.0024,jarvis_3d,jarvis,high,mp-974788,3D
JVASP-25391,Kr3,7.2618,10.8234,3.5615999999999994,jarvis_3d,jarvis,high,mp-975590,3D
JVASP-25392,Kr4,7.2626,10.8245,3.5619000000000005,jarvis_3d,jarvis,high,mp-976347,3D
JVASP-25393,Li4,0.0026,0.0087,0.0060999999999999995,jarvis_3d,jarvis,high,mp-976411,3D
JVASP-25397,Pr3,0.0015,0.003,0.0015,jarvis_3d,jarvis,high,mp-981544,3D
JVASP-25401,Ag3,0.0002,0.0028,0.0026,jarvis_3d,jarvis,high,mp-989737,3D
JVASP-25404,C2,0.5298,0.5543,0.024499999999999966,jarvis_3d,jarvis,high,mp-990448,3D
JVASP-25405,Te2,0.0001,0.0002,0.0001,jarvis_3d,jarvis,high,mp-9924,3D
JVASP-25408,Al1,0.0174,0.0198,0.002400000000000003,jarvis_3d,jarvis,high,mp-998860,3D
JVASP-25409,Br1,0.0072,0.0713,0.0641,jarvis_3d,jarvis,high,mp-998861,3D
JVASP-25412,K1,0.0098,0.0911,0.0813,jarvis_3d,jarvis,high,mp-998881,3D
JVASP-25415,Si4,0.1249,1.1389,1.014,jarvis_3d,jarvis,high,mp-999200,3D
JVASP-25416,N4,4.3349,4.789,0.4540999999999995,jarvis_3d,jarvis,high,mp-999498,3D
JVASP-25417,Na4,0.0046,0.0144,0.0098,jarvis_3d,jarvis,high,mp-999501,3D
JVASP-25418,Y1,0.0222,0.0516,0.0294,jarvis_3d,jarvis,high,mp-9,3D
JVASP-9072,N4 Ca6,1.0417,2.2948,1.2530999999999999,jarvis_3d,jarvis,high,mp-1047,3D
JVASP-9075,Sr8 Si4,0.1465,0.6129,0.46640000000000004,jarvis_3d,jarvis,high,mp-1106,3D
JVASP-9077,Li8 S4,4.1034,4.3663,0.26290000000000013,jarvis_3d,jarvis,high,mp-1125,3D
JVASP-9082,O6 Ga4,2.6942,4.4784,1.7841999999999998,jarvis_3d,jarvis,high,mp-1243,3D
JVASP-9083,Sb8 Ir4,0.0156,0.5968,0.5812,jarvis_3d,jarvis,high,mp-1247,3D
JVASP-9084,C8 Na8,3.4862,5.3064,1.8201999999999998,jarvis_3d,jarvis,high,mp-1267,3D
JVASP-9089,Ca6 P6,0.0451,1.0523,1.0072,jarvis_3d,jarvis,high,mp-1345,3D
JVASP-9090,B12 O2,2.2137,2.4022,0.18850000000000033,jarvis_3d,jarvis,high,mp-1346,3D
JVASP-9093,Rb8 Te4,1.8818,3.1412,1.2594,jarvis_3d,jarvis,high,mp-1397,3D
JVASP-9094,Ti4 O8,2.5665,2.8447,0.2782,jarvis_3d,jarvis,high,mp-1439,3D
JVASP-9100,Ba2 N12,3.8288,4.6803,0.8514999999999997,jarvis_3d,jarvis,high,mp-1707,3D
JVASP-9102,O9 Sm6,3.8301,5.2151,1.3849999999999998,jarvis_3d,jarvis,high,mp-1745,3D
JVASP-9103,N4 O8,2.5183,3.6245,1.1061999999999999,jarvis_3d,jarvis,high,mp-1771,3D
JVASP-9105,O8 Sb4,2.3403,3.1847,0.8443999999999998,jarvis_3d,jarvis,high,mp-1819,3D
JVASP-9108,Ru4 Se8,0.2116,0.6432,0.4316,jarvis_3d,jarvis,high,mp-1922,3D
JVASP-9110,C6 N8,3.5874,4.2699,0.6824999999999997,jarvis_3d,jarvis,high,mp-1985,3D
JVASP-9111,Ru4 S8,0.318,1.112,0.794,jarvis_3d,jarvis,high,mp-2030,3D
JVASP-9114,P6 Rb4,0.74,1.2821,0.5421,jarvis_3d,jarvis,high,mp-2079,3D
JVASP-9115,N12 Sr2,3.7084,4.661,0.9525999999999994,jarvis_3d,jarvis,high,mp-2131,3D
JVASP-9117,Fe4 S8,0.3021,0.4701,0.16800000000000004,jarvis_3d,jarvis,high,mp-226,3D
JVASP-9118,Cd4 O8,1.4818,3.4049,1.9231,jarvis_3d,jarvis,high,mp-2310,3D
JVASP-9119,Na6 O6,1.937,4.0649,2.1278999999999995,jarvis_3d,jarvis,high,mp-2340,3D
JVASP-9122,C8 K8,3.2421,5.5027,2.2605999999999997,jarvis_3d,jarvis,high,mp-243,3D
JVASP-9123,O9 Tb6,4.0305,5.5037,1.4732000000000003,jarvis_3d,jarvis,high,mp-2457,3D
JVASP-9124,O9 Er6,4.2054,5.7629,1.5575,jarvis_3d,jarvis,high,mp-2460,3D
JVASP-9125,Pb4 F8,4.4413,5.5518,1.1105,jarvis_3d,jarvis,high,mp-2511,3D
JVASP-9130,Mg4 O8,3.931,5.4065,1.4755000000000003,jarvis_3d,jarvis,high,mp-2589,3D
JVASP-9131,Mg4 Te8,1.1002,1.7275,0.6273,jarvis_3d,jarvis,high,mp-2604,3D
JVASP-9133,Tl4 F12,1.2414,3.0369,1.7955,jarvis_3d,jarvis,high,mp-2632,3D
JVASP-9135,Sb8 Rh4,0.0117,0.0166,0.0049,jarvis_3d,jarvis,high,mp-2682,3D
JVASP-9137,Te4 O8,3.0414,4.6383,1.5969000000000002,jarvis_3d,jarvis,high,mp-2739,3D
JVASP-9140,S6 Lu4,2.6097,3.4601,0.8504,jarvis_3d,jarvis,high,mp-2826,3D
JVASP-9141,C6 N8,3.1909,3.9561,0.7652000000000001,jarvis_3d,jarvis,high,mp-2852,3D
JVASP-9142,O7 Si2 In2,2.9593,4.6576,1.6983000000000006,jarvis_3d,jarvis,high,mp-2874,3D
JVASP-9147,Hf4 O8,4.1231,5.6636,1.5404999999999998,jarvis_3d,jarvis,high,mp-352,3D
JVASP-9149,As8 Th6,0.0851,0.5813,0.49620000000000003,jarvis_3d,jarvis,high,mp-382,3D
JVASP-9150,Mg2 P8,0.1174,1.0219,0.9045000000000001,jarvis_3d,jarvis,high,mp-384,3D
JVASP-9152,Na6 S6,1.0561,2.3546,1.2985,jarvis_3d,jarvis,high,mp-409,3D
JVASP-9154,Ti4 O8,2.2329,2.5985,0.36560000000000015,jarvis_3d,jarvis,high,mp-430,3D
JVASP-9157,Mn2 P8,0.0225,0.4116,0.3891,jarvis_3d,jarvis,high,mp-487,3D
JVASP-9158,As8 S10,1.5907,2.4695,0.8788,jarvis_3d,jarvis,high,mp-502,3D
JVASP-9159,S6 Ga4,1.6765,3.2436,1.5670999999999997,jarvis_3d,jarvis,high,mp-539,3D
JVASP-9161,Te4 O8,3.0409,4.6377,1.5967999999999996,jarvis_3d,jarvis,high,mp-557,3D
JVASP-9162,C6 N8,1.1207,1.4387,0.31800000000000006,jarvis_3d,jarvis,high,mp-563,3D
JVASP-9164,O10 Nb4,2.5662,3.043,0.47680000000000033,jarvis_3d,jarvis,high,mp-604,3D
JVASP-9170,P8 S10,2.2306,3.002,0.7713999999999999,jarvis_3d,jarvis,high,mp-690,3D
JVASP-9172,K8 As8,0.7616,1.6492,0.8876,jarvis_3d,jarvis,high,mp-713,3D
JVASP-9174,Hf4 O8,3.4783,4.8454,1.3670999999999998,jarvis_3d,jarvis,high,mp-741,3D
JVASP-9178,Zr4 O8,2.9717,3.5568,0.5851000000000002,jarvis_3d,jarvis,high,mp-963,3D
JVASP-9180,Si6 N8,4.4606,5.62,1.1593999999999998,jarvis_3d,jarvis,high,mp-988,3D
JVASP-9195,Ca4 Co4 O8,0.0018,0.0062,0.004399999999999999,jarvis_3d,jarvis,high,mvc-1136,3D
JVASP-9225,Mg2 Sb4 O12,1.5322,2.1938,0.6616,jarvis_3d,jarvis,high,mvc-1621,3D
JVASP-9226,Mg2 Ta4 O12,3.1222,4.2542,1.1320000000000001,jarvis_3d,jarvis,high,mvc-1623,3D
JVASP-9227,Ca2 Sb4 O12,1.48,2.0169,0.5369000000000002,jarvis_3d,jarvis,high,mvc-1657,3D
JVASP-9228,Zn2 Sb4 O12,1.1758,1.858,0.6822000000000001,jarvis_3d,jarvis,high,mvc-1659,3D
JVASP-9231,Ta4 Zn2 O12,2.9147,4.0349,1.1202000000000005,jarvis_3d,jarvis,high,mvc-1666,3D
JVASP-9234,V4 Zn2 O12,1.6783,1.9916,0.31330000000000013,jarvis_3d,jarvis,high,mvc-2085,3D
JVASP-9244,Mg2 V4 O12,1.6628,1.9827,0.31989999999999985,jarvis_3d,jarvis,high,mvc-2157,3D
JVASP-9247,Te4 O12,1.2042,1.5503,0.3461000000000001,jarvis_3d,jarvis,high,mvc-2186,3D
JVASP-9251,Zn4 Sn4 O8,1.7412,2.5329,0.7917000000000001,jarvis_3d,jarvis,high,mvc-2430,3D
JVASP-9253,Ca4 Sn4 O8,1.7329,2.6857,0.9528000000000001,jarvis_3d,jarvis,high,mvc-2447,3D
JVASP-9254,Ca4 Ti4 O8,0.0205,0.0834,0.0629,jarvis_3d,jarvis,high,mvc-2453,3D
JVASP-9279,Ca1 Bi4 O8,0.0096,0.9696,0.96,jarvis_3d,jarvis,high,mvc-2851,3D
JVASP-9280,Mg1 Bi4 O8,0.7541,1.1227,0.36860000000000004,jarvis_3d,jarvis,high,mvc-2854,3D
JVASP-9282,Mg1 Sb4 O8,1.6155,2.7213,1.1058,jarvis_3d,jarvis,high,mvc-2858,3D
JVASP-9285,Zn1 Sb4 O8,1.4875,2.4294,0.9418999999999997,jarvis_3d,jarvis,high,mvc-2876,3D
JVASP-9291,Ca4 Cu4 O8,0.0182,0.0388,0.0206,jarvis_3d,jarvis,high,mvc-446,3D
JVASP-9362,Ba1 V4 Zn1 O8,0.0165,0.0295,0.012999999999999998,jarvis_3d,jarvis,high,mvc-921,3D
JVASP-9373,Na8 Ge2 O8,3.02,5.9719,2.9518999999999997,jarvis_3d,jarvis,high,mp-2970,3D
JVASP-9374,Zn4 Ge4 N8,1.8656,2.9133,1.0477,jarvis_3d,jarvis,high,mp-2979,3D
JVASP-9375,P2 Pd3 S8,1.5366,1.5731,0.03649999999999998,jarvis_3d,jarvis,high,mp-3006,3D
JVASP-9379,Na4 C2 O6,4.3581,7.0825,2.7243999999999993,jarvis_3d,jarvis,high,mp-3070,3D
JVASP-9380,O4 K4 Ag4,1.6277,2.5507,0.923,jarvis_3d,jarvis,high,mp-3074,3D
JVASP-9381,O7 P1 Ga3,3.426,5.5622,2.1361999999999997,jarvis_3d,jarvis,high,mp-3107,3D
JVASP-9382,F7 K3 Zn2,4.4811,6.9803,2.4992,jarvis_3d,jarvis,high,mp-3125,3D
JVASP-9383,O8 Na4 S2,5.4667,8.5318,3.0651,jarvis_3d,jarvis,high,mp-3143,3D
JVASP-9384,O8 Nb2 Ho2,3.4904,4.1548,0.6643999999999997,jarvis_3d,jarvis,high,mp-3144,3D
JVASP-9386,Zn2 Sb4 O12,0.7532,1.5656,0.8124000000000001,jarvis_3d,jarvis,high,mp-3188,3D
JVASP-9388,Nd2 Ta2 O8,4.0085,5.2582,1.2497000000000007,jarvis_3d,jarvis,high,mp-3203,3D
JVASP-9389,Ca2 C2 O6,4.3802,6.1464,1.7661999999999995,jarvis_3d,jarvis,high,mp-3205,3D
JVASP-9390,Hg2 S2 O8,1.4907,3.4173,1.9266,jarvis_3d,jarvis,high,mp-3228,3D
JVASP-9398,O8 Mg2 Rh4,1.3232,1.4215,0.09830000000000005,jarvis_3d,jarvis,high,mp-3319,3D
JVASP-9399,O12 Nb4 Sn2,1.8442,2.0911,0.2468999999999999,jarvis_3d,jarvis,high,mp-3324,3D
JVASP-9400,O6 Ga2 La2,3.5856,4.4654,0.8797999999999999,jarvis_3d,jarvis,high,mp-3336,3D
JVASP-9403,F10 K4 Sb2,4.9609,6.8375,1.8766000000000007,jarvis_3d,jarvis,high,mp-3379,3D
JVASP-9404,Sr2 Se2 O6,3.751,5.0513,1.3003000000000005,jarvis_3d,jarvis,high,mp-3395,3D
JVASP-9406,F8 Rb2 Au2,2.4963,2.5829,0.08659999999999979,jarvis_3d,jarvis,high,mp-3419,3D
JVASP-9409,O6 Ca2 Ti2,2.3087,2.8175,0.5087999999999999,jarvis_3d,jarvis,high,mp-3442,3D
JVASP-9410,O8 Ga4 Cd2,1.8136,3.5113,1.6976999999999998,jarvis_3d,jarvis,high,mp-3443,3D
JVASP-9411,Er2 Ta2 O8,4.0592,5.3319,1.2727000000000004,jarvis_3d,jarvis,high,mp-3444,3D