material_id,formula,pbe_bandgap,hse_bandgap,bandgap_correction,dataset,data_source,confidence,mpid,dimensionality
JVASP-40198,Ca4 Sn2 S8,1.0063,1.7951,0.7888,jarvis_3d,jarvis,high,mp-866829,3D
JVASP-40199,Ca6 Sn2 S10,1.0155,1.688,0.6724999999999999,jarvis_3d,jarvis,high,mp-866830,3D
JVASP-40202,Ca4 Sn2 S8,1.9083,2.8495,0.9411999999999998,jarvis_3d,jarvis,high,mp-866834,3D
JVASP-40203,Ca4 Sn4 S12,0.0718,1.3465,1.2747,jarvis_3d,jarvis,high,mp-866836,3D
JVASP-40204,Ca4 Sn4 S12,0.7289,1.2497,0.5208,jarvis_3d,jarvis,high,mp-866844,3D
JVASP-40205,Ca2 Sn2 S6,0.0925,1.0782,0.9857,jarvis_3d,jarvis,high,mp-866845,3D
JVASP-40207,Ca2 Sn2 S6,0.3318,1.2817,0.9499000000000001,jarvis_3d,jarvis,high,mp-866850,3D
JVASP-40208,Ca8 Sn2 S12,1.4893,2.329,0.8397000000000001,jarvis_3d,jarvis,high,mp-866871,3D
JVASP-40213,Ca2 Sn1 S4,2.1706,3.2824,1.1118000000000001,jarvis_3d,jarvis,high,mp-866922,3D
JVASP-40225,Li1 Dy2 Ru1,0.0253,0.0303,0.005000000000000001,jarvis_3d,jarvis,high,mp-867111,3D
JVASP-40227,Ca2 As1 Au1,0.1178,0.5778,0.45999999999999996,jarvis_3d,jarvis,high,mp-867113,3D
JVASP-40231,Sc2 Cu1 Pt1,0.0222,0.0322,0.009999999999999998,jarvis_3d,jarvis,high,mp-867117,3D
JVASP-40233,Li1 Hf1 Pd2,0.0271,0.0362,0.009100000000000004,jarvis_3d,jarvis,high,mp-867119,3D
JVASP-40237,Ta1 Ti1 Os2,0.0044,0.0076,0.0031999999999999997,jarvis_3d,jarvis,high,mp-867123,3D
JVASP-40239,Al2 Ru1 Pt1,0.0061,0.0498,0.043699999999999996,jarvis_3d,jarvis,high,mp-867125,3D
JVASP-40246,Ba2 Sc2 O5,1.8827,3.6797,1.797,jarvis_3d,jarvis,high,mp-867133,3D
JVASP-40248,Sc1 Zn1 Pd2,0.0139,0.0182,0.004300000000000002,jarvis_3d,jarvis,high,mp-867135,3D
JVASP-40250,Sc1 V1 Ru2,0.01,0.0587,0.0487,jarvis_3d,jarvis,high,mp-867137,3D
JVASP-40261,Li1 Hf1 Rh2,0.0181,0.0597,0.0416,jarvis_3d,jarvis,high,mp-867148,3D
JVASP-40266,Sc1 Ga1 Ru2,0.0063,0.013,0.006699999999999999,jarvis_3d,jarvis,high,mp-867156,3D
JVASP-40269,Sm1 Dy1 Mg2,0.0158,0.0198,0.004,jarvis_3d,jarvis,high,mp-867159,3D
JVASP-40291,Sm2 Zn1 Ir1,0.0079,0.0135,0.005599999999999999,jarvis_3d,jarvis,high,mp-867182,3D
JVASP-40299,Sr2 Bi1 Au1,0.6175,0.8023,0.18479999999999996,jarvis_3d,jarvis,high,mp-867193,3D
JVASP-40306,Sr4 Cd2 As4,0.4365,1.4251,0.9886,jarvis_3d,jarvis,high,mp-867203,3D
JVASP-40310,Sr2 Hg1 Pb1,0.0287,0.0699,0.0412,jarvis_3d,jarvis,high,mp-867207,3D
JVASP-40311,Sr2 Li1 In1,0.0364,0.0899,0.05349999999999999,jarvis_3d,jarvis,high,mp-867208,3D
JVASP-40342,Sc2 Zn1 Ga1,0.0011,0.0086,0.0075,jarvis_3d,jarvis,high,mp-867242,3D
JVASP-40343,Sc2 Zn1 Os1,0.0374,0.0517,0.0143,jarvis_3d,jarvis,high,mp-867243,3D
JVASP-40359,Cd1 Ag1 Pd2,0.0359,0.0361,0.0001999999999999988,jarvis_3d,jarvis,high,mp-867260,3D
JVASP-40360,Rb1 Sr1 C1 O3 F1,4.2478,7.3611,3.1133000000000006,jarvis_3d,jarvis,high,mp-867261,3D
JVASP-40367,K4 P2 Pd1 S8,1.676,1.9903,0.3143,jarvis_3d,jarvis,high,mp-867268,3D
JVASP-40382,Ho2 Cu1 Ru1,0.0402,0.0437,0.003500000000000003,jarvis_3d,jarvis,high,mp-867283,3D
JVASP-40383,Ho2 Cu1 Rh1,0.0139,0.0333,0.019400000000000004,jarvis_3d,jarvis,high,mp-867284,3D
JVASP-40385,Tb4 B4 S12,2.4242,3.2437,0.8195000000000001,jarvis_3d,jarvis,high,mp-867286,3D
JVASP-40413,Al2 Co1 Ir1,0.033,0.0461,0.0131,jarvis_3d,jarvis,high,mp-867319,3D
JVASP-40416,Pr6 Si2 Ag2 S14,1.7491,2.5108,0.7617,jarvis_3d,jarvis,high,mp-867322,3D
JVASP-40420,Al2 Ru1 Rh1,0.0241,0.0267,0.0026000000000000016,jarvis_3d,jarvis,high,mp-867326,3D
JVASP-40422,K2 Y2 Si2 S8,2.808,3.4709,0.6629,jarvis_3d,jarvis,high,mp-867328,3D
JVASP-40428,K2 Y2 Ge2 S8,2.3217,3.204,0.8823000000000003,jarvis_3d,jarvis,high,mp-867334,3D
JVASP-40429,K4 Sb2 Au2,1.051,1.7754,0.7244000000000002,jarvis_3d,jarvis,high,mp-867335,3D
JVASP-40432,K4 Ba2 Cd2 Sb4,0.0981,0.9299,0.8318,jarvis_3d,jarvis,high,mp-867340,3D
JVASP-40436,Er2 Ni1 Os1,0.0243,0.0404,0.0161,jarvis_3d,jarvis,high,mp-867344,3D
JVASP-40441,Dy2 Mg1 Tl1,0.01,0.0177,0.0077,jarvis_3d,jarvis,high,mp-867349,3D
JVASP-40442,Ca2 Mg1 In1,0.0392,0.0623,0.023100000000000002,jarvis_3d,jarvis,high,mp-867350,3D
JVASP-40466,Ta1 Ga1 Fe2,0.0108,0.0221,0.011300000000000001,jarvis_3d,jarvis,high,mp-867507,3D
JVASP-40477,Li4 Ti1 S4,2.3588,2.7076,0.3487999999999998,jarvis_3d,jarvis,high,mp-867699,3D
JVASP-40484,Tb6 Sb2 O14,3.0423,4.1013,1.0590000000000002,jarvis_3d,jarvis,high,mp-867725,3D
JVASP-40491,Ge4 N4 O2,2.4905,3.9168,1.4263,jarvis_3d,jarvis,high,mp-867745,3D
JVASP-40493,Ca2 Bi2 O6,0.054,0.0712,0.0172,jarvis_3d,jarvis,high,mp-867749,3D
JVASP-40499,Rb3 Ca3 C3 O9 F3,4.5257,6.9657,2.4400000000000004,jarvis_3d,jarvis,high,mp-867757,3D
JVASP-40502,Be1 Si1 Rh2,0.0016,0.0171,0.0155,jarvis_3d,jarvis,high,mp-867767,3D
JVASP-40504,Sc1 Zn1 Rh2,0.0174,0.0426,0.0252,jarvis_3d,jarvis,high,mp-867769,3D
JVASP-40516,Ta1 Ga1 Os2,0.0477,0.1037,0.056,jarvis_3d,jarvis,high,mp-867788,3D
JVASP-40540,Ta1 Ti1 Mn2,0.0101,0.0116,0.0014999999999999996,jarvis_3d,jarvis,high,mp-867821,3D
JVASP-40570,Sm1 H3,0.0355,0.4145,0.379,jarvis_3d,jarvis,high,mp-867857,3D
JVASP-40574,Sm1 Y1 Mg2,0.0324,0.0506,0.0182,jarvis_3d,jarvis,high,mp-867861,3D
JVASP-40580,Sm2 Ag1 Ru1,0.0336,0.0475,0.013900000000000003,jarvis_3d,jarvis,high,mp-867869,3D
JVASP-40582,Sm1 Mg1 Zn2,0.0373,0.0451,0.007800000000000001,jarvis_3d,jarvis,high,mp-867871,3D
JVASP-40591,Sc1 Tl1 Rh2,0.0028,0.0048,0.0019999999999999996,jarvis_3d,jarvis,high,mp-867881,3D
JVASP-40592,Sm1 Cd1 Au2,0.0161,0.03,0.0139,jarvis_3d,jarvis,high,mp-867882,3D
JVASP-40594,Rb4 Ba4 Ta4 S16,2.4583,2.9369,0.47860000000000014,jarvis_3d,jarvis,high,mp-867884,3D
JVASP-40600,Sm2 Cu1 Ru1,0.0123,0.0811,0.0688,jarvis_3d,jarvis,high,mp-867895,3D
JVASP-40602,Sc1 Ta1 Ru2,0.007,0.1008,0.0938,jarvis_3d,jarvis,high,mp-867897,3D
JVASP-40603,Dy1 Ag1 Hg2,0.0178,0.0287,0.0109,jarvis_3d,jarvis,high,mp-867898,3D
JVASP-40604,Sm2 Ir1 Rh1,0.0106,0.0369,0.026300000000000004,jarvis_3d,jarvis,high,mp-867899,3D
JVASP-40608,Li1 Lu1 Au2,0.0022,0.003,0.0007999999999999999,jarvis_3d,jarvis,high,mp-867903,3D
JVASP-40623,Er1 Nb1 Ru2,0.0243,0.0248,0.0005000000000000004,jarvis_3d,jarvis,high,mp-867919,3D
JVASP-40634,Na2 Si4 B2 H4 O14,4.1801,6.7771,2.5969999999999995,jarvis_3d,jarvis,high,mp-867930,3D
JVASP-40636,Si4 O10,3.2278,4.5309,1.3031000000000001,jarvis_3d,jarvis,high,mp-867933,3D
JVASP-40639,Ta1 In1 Ru2,0.0303,0.1239,0.09359999999999999,jarvis_3d,jarvis,high,mp-867958,3D
JVASP-40654,Li4 Mn4 P4 O16,0.0044,0.0085,0.0041,jarvis_3d,jarvis,high,mp-868128,3D
JVASP-40664,Li12 V2 O6 F6,0.0062,0.6703,0.6641,jarvis_3d,jarvis,high,mp-868168,3D
JVASP-40687,Cr2 Co6 O16,0.0076,0.1121,0.10450000000000001,jarvis_3d,jarvis,high,mp-868352,3D
JVASP-40734,Li2 V1 Fe1 O4,0.0017,0.0017,0.0,jarvis_3d,jarvis,high,mp-868647,3D
JVASP-40763,K1 Ba1 P1,1.2182,1.592,0.37380000000000013,jarvis_3d,jarvis,high,mp-961648,3D
JVASP-40764,Zr1 Fe1 Te1,1.2126,1.2595,0.046900000000000164,jarvis_3d,jarvis,high,mp-961649,3D
JVASP-40772,Y1 Ni1 P1,0.5798,0.661,0.08120000000000005,jarvis_3d,jarvis,high,mp-961657,3D
JVASP-40778,Sr1 Te1 Pd1,0.5926,0.8604,0.26780000000000004,jarvis_3d,jarvis,high,mp-961663,3D
JVASP-40780,Mg1 Sc1 Ga1,0.0768,0.1596,0.0828,jarvis_3d,jarvis,high,mp-961665,3D
JVASP-40782,Ca1 Ni1 Te1,0.1932,0.4402,0.24699999999999997,jarvis_3d,jarvis,high,mp-961667,3D
JVASP-40783,Al1 V1 Pt1,0.0064,0.1234,0.11699999999999999,jarvis_3d,jarvis,high,mp-961668,3D
JVASP-40784,Nb1 Ga1 Pt1,0.0067,0.0292,0.0225,jarvis_3d,jarvis,high,mp-961669,3D
JVASP-40787,Sr1 Al1 Ga1,0.0057,0.0162,0.010499999999999999,jarvis_3d,jarvis,high,mp-961672,3D
JVASP-40792,Ta1 Ga1 Pt1,0.0158,0.0254,0.009599999999999997,jarvis_3d,jarvis,high,mp-961677,3D
JVASP-40793,Sc1 Co1 Te1,0.9024,0.9172,0.014800000000000035,jarvis_3d,jarvis,high,mp-961678,3D
JVASP-40794,Ta1 Al1 Pt1,0.0239,0.0765,0.052599999999999994,jarvis_3d,jarvis,high,mp-961679,3D
JVASP-40795,Nb1 Al1 Pt1,0.0264,0.0584,0.032,jarvis_3d,jarvis,high,mp-961680,3D
JVASP-40797,Ti1 Sn1 Pd1,0.1148,0.5161,0.4013,jarvis_3d,jarvis,high,mp-961682,3D
JVASP-40798,Li1 Mg1 P1,1.8942,2.5137,0.6194999999999999,jarvis_3d,jarvis,high,mp-961683,3D
JVASP-40799,Hf1 Si1 Ni1,0.0259,0.0963,0.07039999999999999,jarvis_3d,jarvis,high,mp-961686,3D
JVASP-40800,Zr1 Sn1 Pd1,0.1523,0.476,0.3237,jarvis_3d,jarvis,high,mp-961687,3D
JVASP-40803,V1 Ga1 Ni1,0.006,0.047,0.041,jarvis_3d,jarvis,high,mp-961690,3D
JVASP-40805,Ta1 In1 Ni1,0.0134,0.0226,0.009199999999999998,jarvis_3d,jarvis,high,mp-961692,3D
JVASP-40806,Zr1 In1 Au1,0.1678,0.5491,0.38130000000000003,jarvis_3d,jarvis,high,mp-961693,3D
JVASP-40810,Sc1 Ge1 Au1,0.0518,0.386,0.3342,jarvis_3d,jarvis,high,mp-961697,3D
JVASP-40814,Zr1 Ag1 B1,0.014,0.0527,0.0387,jarvis_3d,jarvis,high,mp-961701,3D
JVASP-40816,Na1 Li1 Pt1,0.2943,0.4658,0.17149999999999999,jarvis_3d,jarvis,high,mp-961703,3D
JVASP-40818,Ti1 Pt1 Pb1,0.0382,0.0549,0.0167,jarvis_3d,jarvis,high,mp-961705,3D
JVASP-40822,Zr1 Pt1 Pb1,0.0173,0.0519,0.034600000000000006,jarvis_3d,jarvis,high,mp-961709,3D
JVASP-40824,Zr1 Si1 Pt1,1.3683,1.4126,0.044300000000000006,jarvis_3d,jarvis,high,mp-961711,3D
JVASP-40825,Ta1 Tl1 Pt1,1.0697,1.1357,0.06599999999999984,jarvis_3d,jarvis,high,mp-961712,3D
JVASP-40826,Zr1 Sn1 Pt1,0.9979,1.0604,0.0625,jarvis_3d,jarvis,high,mp-961713,3D
JVASP-40828,V1 Sn1 Pt1,0.0028,0.0068,0.004,jarvis_3d,jarvis,high,mp-961716,3D
JVASP-40829,V1 In1 Pt1,0.024,0.1391,0.11510000000000001,jarvis_3d,jarvis,high,mp-961717,3D
JVASP-40831,Hf1 As1 Rh1,0.0198,0.0347,0.0149,jarvis_3d,jarvis,high,mp-961719,3D
JVASP-40840,Nb1 In1 Ni1,0.006,0.0075,0.0014999999999999996,jarvis_3d,jarvis,high,mp-961731,3D
JVASP-40841,Hf1 Ni1 Pb1,0.0137,0.0194,0.0057,jarvis_3d,jarvis,high,mp-961732,3D
JVASP-40842,Ba1 Na1 Sb1,0.2499,0.8168,0.5669,jarvis_3d,jarvis,high,mp-961774,3D
JVASP-40843,Sr1 Ca1 Si1,0.1091,0.7833,0.6742,jarvis_3d,jarvis,high,mp-962057,3D
JVASP-40844,Y1 Se1 Cl1,1.9092,2.3699,0.4606999999999999,jarvis_3d,jarvis,high,mp-962058,3D
JVASP-40852,Er2 Cu1 Pt1,0.007,0.0199,0.012900000000000002,jarvis_3d,jarvis,high,mp-862940,3D
JVASP-40858,Ba2 Bi1 Au1,0.6315,0.8248,0.19330000000000003,jarvis_3d,jarvis,high,mp-862947,3D
JVASP-40901,Nb1 Bi1 O4,2.4679,3.1106,0.6426999999999996,jarvis_3d,jarvis,high,mp-863076,3D
JVASP-40945,K1 Na2 Bi1,0.8322,0.9381,0.1059,jarvis_3d,jarvis,high,mp-863707,3D
JVASP-40963,Ho2 Os1 Pd1,0.0196,0.0249,0.005299999999999999,jarvis_3d,jarvis,high,mp-863729,3D
JVASP-40968,Er1 Rh2 Pb1,0.0058,0.035,0.029200000000000004,jarvis_3d,jarvis,high,mp-863735,3D
JVASP-41004,Yb4 H8,3.2944,5.1898,1.8954,jarvis_3d,jarvis,high,mp-864603,3D
JVASP-41032,Ba4 In2 Bi2 S10,1.4185,2.4916,1.0731,jarvis_3d,jarvis,high,mp-864638,3D
JVASP-41034,Ta2 Nb1 Ir1,0.0047,0.0061,0.0014000000000000002,jarvis_3d,jarvis,high,mp-864640,3D
JVASP-41039,Er1 Ag1 Hg2,0.0112,0.0374,0.0262,jarvis_3d,jarvis,high,mp-864646,3D
JVASP-41041,Ta2 Os1 W1,0.0012,0.036,0.0348,jarvis_3d,jarvis,high,mp-864650,3D
JVASP-41044,Ho1 Mg1 Au2,0.0043,0.0104,0.0060999999999999995,jarvis_3d,jarvis,high,mp-864653,3D
JVASP-41045,Zn2 Ni1 Rh1,0.0058,0.0904,0.0846,jarvis_3d,jarvis,high,mp-864654,3D
JVASP-41049,Zn1 Cu1 Pd2,0.0049,0.0244,0.019500000000000003,jarvis_3d,jarvis,high,mp-864661,3D
JVASP-41056,Hf1 Al1 Rh2,0.0047,0.0919,0.0872,jarvis_3d,jarvis,high,mp-864671,3D
JVASP-41067,Hf1 In1 Co2,0.0148,0.02,0.0052,jarvis_3d,jarvis,high,mp-864715,3D
JVASP-41088,Ta2 Mn1 Os1,0.0022,0.0044,0.0022,jarvis_3d,jarvis,high,mp-864761,3D
JVASP-41096,Yb2 Li1 Tl1,0.0162,0.0473,0.031100000000000003,jarvis_3d,jarvis,high,mp-864769,3D
JVASP-41120,Yb2 O4,3.571,4.6275,1.0565000000000002,jarvis_3d,jarvis,high,mp-864801,3D
JVASP-41141,Zr1 Al1 Au2,0.0029,0.0284,0.025500000000000002,jarvis_3d,jarvis,high,mp-864878,3D
JVASP-41154,Na2 Tl1 Bi1,0.3971,0.6335,0.23639999999999994,jarvis_3d,jarvis,high,mp-864898,3D
JVASP-41165,Na3 U1 F8,0.0014,0.083,0.0816,jarvis_3d,jarvis,high,mp-864913,3D
JVASP-41171,Mg1 Zr1 Ir2,0.0013,0.0288,0.0275,jarvis_3d,jarvis,high,mp-864921,3D
JVASP-41200,Mn1 V2 Cr1,0.0138,0.015,0.0011999999999999997,jarvis_3d,jarvis,high,mp-864953,3D
JVASP-41210,Mn1 In1 Rh2,0.0013,0.0027,0.0014000000000000002,jarvis_3d,jarvis,high,mp-864968,3D
JVASP-41216,Hf2 Cu1 Os1,0.0216,0.0228,0.0011999999999999997,jarvis_3d,jarvis,high,mp-864974,3D
JVASP-41236,Dy2 Al6,0.0014,0.0096,0.008199999999999999,jarvis_3d,jarvis,high,mp-864995,3D
JVASP-41242,Hf1 Sc1 Os2,0.0268,0.031,0.004199999999999999,jarvis_3d,jarvis,high,mp-865001,3D
JVASP-41249,Hf1 Ga1 Ru2,0.0376,0.0587,0.0211,jarvis_3d,jarvis,high,mp-865010,3D
JVASP-41256,Hf1 Ga1 Rh2,0.0463,0.0512,0.004900000000000002,jarvis_3d,jarvis,high,mp-865019,3D
JVASP-41257,Hf1 Mg1 Ir2,0.0144,0.0405,0.0261,jarvis_3d,jarvis,high,mp-865020,3D
JVASP-41260,Hf1 Tc2 Sb1,0.0023,0.0239,0.0216,jarvis_3d,jarvis,high,mp-865023,3D
JVASP-41261,Hf1 Ta1 Re2,0.0013,0.0156,0.0143,jarvis_3d,jarvis,high,mp-865025,3D
JVASP-41276,Li1 Pa1 Pt2,0.0014,0.0024,0.0009999999999999998,jarvis_3d,jarvis,high,mp-865046,3D
JVASP-41278,Ti1 Zn1 Ir2,0.055,0.1548,0.0998,jarvis_3d,jarvis,high,mp-865048,3D
JVASP-41282,Hf1 In1 Rh2,0.0248,0.0432,0.018400000000000003,jarvis_3d,jarvis,high,mp-865066,3D
JVASP-41297,Na1 Ga1 H8 N2 F6,6.0931,8.85,2.7569,jarvis_3d,jarvis,high,mp-865095,3D
JVASP-41307,Na1 Sm1 Hg2,0.0029,0.009,0.0060999999999999995,jarvis_3d,jarvis,high,mp-865108,3D
JVASP-41308,Na1 Sm1 Tl2,0.0032,0.028,0.0248,jarvis_3d,jarvis,high,mp-865109,3D
JVASP-41319,Na1 Pa1 O3,3.2799,3.3046,0.024700000000000166,jarvis_3d,jarvis,high,mp-865120,3D
JVASP-41321,Na1 Nd1 Tl2,0.0048,0.0146,0.0098,jarvis_3d,jarvis,high,mp-865122,3D
JVASP-41327,Na1 Sr2 Tl1,0.0222,0.0246,0.0023999999999999994,jarvis_3d,jarvis,high,mp-865128,3D
JVASP-41330,Hf2 Os1 Rh1,0.0067,0.0212,0.014499999999999999,jarvis_3d,jarvis,high,mp-865131,3D
JVASP-41339,Dy1 Mg1 Zn2,0.0085,0.0118,0.003299999999999999,jarvis_3d,jarvis,high,mp-865142,3D
JVASP-41356,Dy2 Ag1 Ru1,0.0191,0.0369,0.017800000000000003,jarvis_3d,jarvis,high,mp-865161,3D
JVASP-41359,Hf1 Cd1 Cu2,0.0857,0.133,0.04730000000000001,jarvis_3d,jarvis,high,mp-865164,3D
JVASP-41371,Hf1 Cu3,0.0068,0.0086,0.0018000000000000004,jarvis_3d,jarvis,high,mp-865176,3D
JVASP-41380,Mg1 Be2 As2,0.6931,1.2671,0.5739999999999998,jarvis_3d,jarvis,high,mp-865185,3D
JVASP-41382,Mg1 Fe1 Rh2,0.0006,0.0026,0.002,jarvis_3d,jarvis,high,mp-865187,3D
JVASP-41383,Mg1 H8 Cl2 O12,5.6794,8.2844,2.6049999999999995,jarvis_3d,jarvis,high,mp-865188,3D
JVASP-41387,Co6 Pt2,0.0,0.0011,0.0011,jarvis_3d,jarvis,high,mp-865193,3D
JVASP-41388,Tm1 F3,5.6507,7.2393,1.5886000000000005,jarvis_3d,jarvis,high,mp-865194,3D
JVASP-41404,Yb1 Ti1 O3,1.9474,2.5198,0.5724,jarvis_3d,jarvis,high,mp-865218,3D
JVASP-41406,Dy2 Cu1 Ru1,0.0079,0.0338,0.025899999999999996,jarvis_3d,jarvis,high,mp-865220,3D
JVASP-41411,Tm1 Mg1 Au2,0.0083,0.0315,0.0232,jarvis_3d,jarvis,high,mp-865225,3D
JVASP-41419,Tm1 Mg1 Zn2,0.003,0.0045,0.0014999999999999996,jarvis_3d,jarvis,high,mp-865233,3D
JVASP-41426,Lu2 Mg1 In1,0.003,0.0232,0.0202,jarvis_3d,jarvis,high,mp-865240,3D
JVASP-41435,Lu1 Mg1 Pd2,0.0095,0.0111,0.0016000000000000007,jarvis_3d,jarvis,high,mp-865253,3D
JVASP-41436,Tb1 Yb1 Hg2,0.0128,0.0287,0.015899999999999997,jarvis_3d,jarvis,high,mp-865254,3D
JVASP-41439,Dy1 Zn1 Rh2,0.045,0.0466,0.0016000000000000042,jarvis_3d,jarvis,high,mp-865257,3D
JVASP-41442,Lu2 Zn1 Ir1,0.0169,0.0308,0.013900000000000003,jarvis_3d,jarvis,high,mp-865260,3D
JVASP-41446,Tm1 Ta1 Os2,0.0127,0.0757,0.063,jarvis_3d,jarvis,high,mp-865270,3D
JVASP-41451,Nb1 Al1 Os2,0.1325,0.1352,0.00269999999999998,jarvis_3d,jarvis,high,mp-865278,3D
JVASP-41453,Nb1 Al1 Fe2,0.0181,0.0982,0.08009999999999999,jarvis_3d,jarvis,high,mp-865280,3D
JVASP-41455,Tm2 Ag1 Ru1,0.0014,0.0077,0.0063,jarvis_3d,jarvis,high,mp-865282,3D
JVASP-41456,Tm2 Al1 Os1,0.0335,0.0367,0.0032000000000000015,jarvis_3d,jarvis,high,mp-865283,3D
JVASP-41459,Ho2 In1 Ag1,0.003,0.0044,0.0014000000000000002,jarvis_3d,jarvis,high,mp-865297,3D
JVASP-41464,Tm2 Co1 Os1,0.0058,0.0334,0.0276,jarvis_3d,jarvis,high,mp-865303,3D
JVASP-41466,U2 O4,0.001,0.0021,0.0010999999999999998,jarvis_3d,jarvis,high,mp-865305,3D
JVASP-41467,Tm2 Cu1 Os1,0.0114,0.0191,0.0076999999999999985,jarvis_3d,jarvis,high,mp-865306,3D
JVASP-41470,Tm2 Co1 Ir1,0.0193,0.0313,0.012,jarvis_3d,jarvis,high,mp-865309,3D
JVASP-41476,Lu2 Pd1 Ru1,0.0052,0.0239,0.0187,jarvis_3d,jarvis,high,mp-865320,3D
JVASP-41485,Lu2 Ni1 Ru1,0.0028,0.0077,0.0049,jarvis_3d,jarvis,high,mp-865335,3D
JVASP-41486,Lu2 Os1 Pd1,0.0152,0.0495,0.034300000000000004,jarvis_3d,jarvis,high,mp-865336,3D
JVASP-41487,Lu2 Ni1 Ir1,0.0025,0.0081,0.005599999999999999,jarvis_3d,jarvis,high,mp-865337,3D
JVASP-41488,Tm2 Zn1 Pt1,0.0038,0.0221,0.0183,jarvis_3d,jarvis,high,mp-865338,3D
JVASP-41491,Tm2 In1 Os1,0.0368,0.072,0.035199999999999995,jarvis_3d,jarvis,high,mp-865341,3D
JVASP-41496,Tm2 Zn1 Ru1,0.0167,0.0226,0.005899999999999999,jarvis_3d,jarvis,high,mp-865351,3D
JVASP-41498,Tm2 Ir1 Pd1,0.0042,0.0302,0.026000000000000002,jarvis_3d,jarvis,high,mp-865354,3D
JVASP-41502,Dy1 Sn1 Ru2,0.0298,0.0982,0.06839999999999999,jarvis_3d,jarvis,high,mp-865358,3D
JVASP-41506,Zn3 Ir1,0.0054,0.0076,0.0021999999999999997,jarvis_3d,jarvis,high,mp-865362,3D
JVASP-41508,Dy1 Ta1 Ru2,0.0101,0.025,0.014900000000000002,jarvis_3d,jarvis,high,mp-865364,3D
JVASP-41509,Tm2 Ni1 Ir1,0.0112,0.0163,0.005099999999999999,jarvis_3d,jarvis,high,mp-865365,3D
JVASP-41510,Yb1 Cd3,0.0161,0.0703,0.0542,jarvis_3d,jarvis,high,mp-865366,3D
JVASP-41513,Tm2 Os1 Au1,0.0135,0.0232,0.009699999999999999,jarvis_3d,jarvis,high,mp-865369,3D
JVASP-41515,Tm2 Os1 Pd1,0.0148,0.0303,0.0155,jarvis_3d,jarvis,high,mp-865374,3D
JVASP-41521,Tm2 Pd1 Pt1,0.0052,0.0168,0.0116,jarvis_3d,jarvis,high,mp-865380,3D
JVASP-41522,Tm2 Ir1 Ru1,0.0071,0.0603,0.0532,jarvis_3d,jarvis,high,mp-865381,3D
JVASP-41523,V3 Ru1,0.0012,0.0036,0.0024000000000000002,jarvis_3d,jarvis,high,mp-865382,3D
JVASP-41524,Tm2 Os1 Ru1,0.0559,0.075,0.0191,jarvis_3d,jarvis,high,mp-865383,3D
JVASP-41550,K1 Sr1 C1 O3 F1,4.1868,7.3681,3.1813000000000002,jarvis_3d,jarvis,high,mp-865427,3D
JVASP-41553,Yb1 Zn1 Au2,0.0129,0.0176,0.004700000000000001,jarvis_3d,jarvis,high,mp-865431,3D
JVASP-41567,Lu2 Ag1 Hg1,0.0054,0.0717,0.0663,jarvis_3d,jarvis,high,mp-865446,3D
JVASP-41573,Lu2 Ag1 Ru1,0.0135,0.031,0.0175,jarvis_3d,jarvis,high,mp-865459,3D
JVASP-41576,Mn1 V2 Os1,0.0008,0.0043,0.0035,jarvis_3d,jarvis,high,mp-865462,3D
JVASP-41606,Y1 Al1 Ag2,0.0233,0.0842,0.060899999999999996,jarvis_3d,jarvis,high,mp-865504,3D
JVASP-41642,Ti1 In1 Co2,0.0485,0.079,0.0305,jarvis_3d,jarvis,high,mp-865548,3D
JVASP-41682,Y2 Br6,2.5145,3.5905,1.076,jarvis_3d,jarvis,high,mp-865605,3D
JVASP-41684,Lu1 Ga1 Pd2,0.0113,0.0411,0.0298,jarvis_3d,jarvis,high,mp-865607,3D
JVASP-41693,Lu2 Ir1 Rh1,0.0322,0.0461,0.013900000000000003,jarvis_3d,jarvis,high,mp-865623,3D
JVASP-41695,Ti2 Co1 Ir1,0.0043,0.005,0.0007000000000000001,jarvis_3d,jarvis,high,mp-861639,3D
JVASP-41705,Ho1 In1 Pd2,0.0036,0.0204,0.016800000000000002,jarvis_3d,jarvis,high,mp-861654,3D
JVASP-41707,Li2 Pr1 Al1,0.0743,0.0826,0.008300000000000002,jarvis_3d,jarvis,high,mp-861657,3D
JVASP-41734,Ta1 Tl1 O3,0.9299,1.1852,0.2553000000000001,jarvis_3d,jarvis,high,mp-861873,3D
JVASP-41746,Li1 Dy1 Hg2,0.0018,0.0513,0.049499999999999995,jarvis_3d,jarvis,high,mp-861886,3D
JVASP-41762,Cd1 Ga1 Rh2,0.0921,0.169,0.07690000000000001,jarvis_3d,jarvis,high,mp-861909,3D
JVASP-41817,Ir4 S6,1.1113,1.1541,0.04279999999999995,jarvis_3d,jarvis,high,mp-861979,3D
JVASP-41832,Cu2 Pd1 Au1,0.0214,0.0287,0.007300000000000001,jarvis_3d,jarvis,high,mp-862256,3D
JVASP-41833,Sc2 Zn1 Au1,0.0038,0.0043,0.0005,jarvis_3d,jarvis,high,mp-862257,3D
JVASP-41836,Sc2 Zn6,0.0036,0.0117,0.0081,jarvis_3d,jarvis,high,mp-862260,3D
JVASP-41840,Sc2 Zn1 Tc1,0.0049,0.0303,0.0254,jarvis_3d,jarvis,high,mp-862264,3D
JVASP-41850,Sc2 Ga1 Os1,0.0286,0.0355,0.006899999999999996,jarvis_3d,jarvis,high,mp-862300,3D
JVASP-41863,Sc2 Ir1 Pd1,0.002,0.027,0.025,jarvis_3d,jarvis,high,mp-862336,3D
JVASP-41865,Sc2 Cu1 Ru1,0.0241,0.0405,0.0164,jarvis_3d,jarvis,high,mp-862338,3D
JVASP-41868,Sc2 Ni1 Ir1,0.0063,0.0181,0.011800000000000001,jarvis_3d,jarvis,high,mp-862360,3D
JVASP-41871,Sc2 Pd1 Pt1,0.0038,0.0299,0.026099999999999998,jarvis_3d,jarvis,high,mp-862363,3D
JVASP-41872,Sc2 Os1 Pt1,0.0032,0.0043,0.0010999999999999998,jarvis_3d,jarvis,high,mp-862364,3D