material_id,formula,pbe_bandgap,hse_bandgap,bandgap_correction,dataset,data_source,confidence,mpid,dimensionality
JVASP-45808,Li4 Mn2 Si4 O12,0.0026,0.1484,0.1458,jarvis_3d,jarvis,high,mp-767686,3D
JVASP-45862,Li3 Co3 Ni1 O8,0.0029,0.0032,0.00030000000000000035,jarvis_3d,jarvis,high,mp-767944,3D
JVASP-45863,Li4 Fe2 Si2 O10,0.0784,0.1221,0.0437,jarvis_3d,jarvis,high,mp-767954,3D
JVASP-45905,Mn4 O2 F6,0.0105,0.0247,0.014199999999999999,jarvis_3d,jarvis,high,mp-768014,3D
JVASP-45965,Li8 Sb1 S6,2.5439,2.7505,0.20660000000000034,jarvis_3d,jarvis,high,mp-768171,3D
JVASP-45967,Dy4 S2 O4,2.8656,4.3631,1.4975,jarvis_3d,jarvis,high,mp-768175,3D
JVASP-45968,Tm2 Ta2 O8,3.6354,4.8198,1.1843999999999997,jarvis_3d,jarvis,high,mp-768176,3D
JVASP-45977,Be6 H12,5.7844,7.4069,1.6225000000000005,jarvis_3d,jarvis,high,mp-768203,3D
JVASP-45986,Y2 Bi2 O6,3.1694,4.2522,1.0828000000000002,jarvis_3d,jarvis,high,mp-768221,3D
JVASP-45991,Sm2 Ta2 O8,3.5448,4.701,1.1561999999999997,jarvis_3d,jarvis,high,mp-768230,3D
JVASP-45992,Y2 H2 O4,4.3614,5.8308,1.4694000000000003,jarvis_3d,jarvis,high,mp-768231,3D
JVASP-45994,Ba1 Y2 F8,7.3068,8.4668,1.1599999999999993,jarvis_3d,jarvis,high,mp-768240,3D
JVASP-45995,Dy2 Ge2 O7,3.9196,6.0129,2.0933,jarvis_3d,jarvis,high,mp-768241,3D
JVASP-46004,Dy2 Nb2 O8,3.941,4.7243,0.7833000000000006,jarvis_3d,jarvis,high,mp-768303,3D
JVASP-46005,Sr2 Hf1 O4,3.7709,5.1404,1.3694999999999995,jarvis_3d,jarvis,high,mp-768305,3D
JVASP-46006,Ba2 S2 O6,4.7205,6.4358,1.7153,jarvis_3d,jarvis,high,mp-768307,3D
JVASP-46010,Sc2 In2 O6,2.4006,3.9716,1.5710000000000002,jarvis_3d,jarvis,high,mp-768358,3D
JVASP-46014,Tm4 H4 O8,5.0463,7.1084,2.0621,jarvis_3d,jarvis,high,mp-768422,3D
JVASP-46015,Y2 Sc2 O6,3.3249,4.2979,0.9730000000000003,jarvis_3d,jarvis,high,mp-768479,3D
JVASP-46043,Pr2 As2 O8,3.9595,5.6076,1.6481,jarvis_3d,jarvis,high,mp-768863,3D
JVASP-46044,K2 Nd2 O4,3.797,5.3757,1.5787,jarvis_3d,jarvis,high,mp-768864,3D
JVASP-46049,Ho2 Te1 O2,0.7149,1.8002,1.0853000000000002,jarvis_3d,jarvis,high,mp-768908,3D
JVASP-46076,Pr2 O2 F2,4.4194,6.0262,1.6067999999999998,jarvis_3d,jarvis,high,mp-769173,3D
JVASP-46084,Dy2 Se1 O2,2.3813,3.5142,1.1329000000000002,jarvis_3d,jarvis,high,mp-769253,3D
JVASP-46090,Dy2 Se1 O2,2.3072,3.675,1.3678,jarvis_3d,jarvis,high,mp-769284,3D
JVASP-46111,Y2 Ge2 O7,4.0552,6.3754,2.3202,jarvis_3d,jarvis,high,mp-769466,3D
JVASP-46194,Li1 Mn4 O8,0.0022,0.0062,0.004,jarvis_3d,jarvis,high,mp-769702,3D
JVASP-46248,Li4 Al2 V2 O8,0.236,0.2809,0.044899999999999995,jarvis_3d,jarvis,high,mp-769765,3D
JVASP-46265,Li4 Mn4 O6,0.0051,0.0102,0.0051,jarvis_3d,jarvis,high,mp-769784,3D
JVASP-46392,Co2 Bi2 O8,0.0479,0.2229,0.175,jarvis_3d,jarvis,high,mp-769930,3D
JVASP-46445,Mn3 Cr1 O8,0.0039,0.0085,0.004600000000000001,jarvis_3d,jarvis,high,mp-770001,3D
JVASP-46446,Al1 Cr1 O4,0.0014,0.0017,0.0002999999999999999,jarvis_3d,jarvis,high,mp-770002,3D
JVASP-46469,Li1 Mn2 Fe3 O8,0.0051,0.0193,0.0142,jarvis_3d,jarvis,high,mp-770029,3D
JVASP-46527,Ba3 Ti2 O7,2.2383,2.2806,0.042300000000000004,jarvis_3d,jarvis,high,mp-770118,3D
JVASP-46536,Li4 Cr2 O6,0.0388,0.047,0.008199999999999999,jarvis_3d,jarvis,high,mp-770149,3D
JVASP-46537,Tl2 Co2 O6,0.0038,0.0071,0.0033000000000000004,jarvis_3d,jarvis,high,mp-770150,3D
JVASP-46665,Li8 Mn2 F14,0.003,0.0288,0.0258,jarvis_3d,jarvis,high,mp-767161,3D
JVASP-46695,V4 O4 F12,2.7719,3.1908,0.41889999999999983,jarvis_3d,jarvis,high,mp-767197,3D
JVASP-46716,Li1 Mn2 P2 O8,0.0016,0.0095,0.007899999999999999,jarvis_3d,jarvis,high,mp-767226,3D
JVASP-46718,Li1 Fe2 P2 O8,0.0012,0.0024,0.0012,jarvis_3d,jarvis,high,mp-767228,3D
JVASP-46727,Mn5 O3 F5,0.0021,0.0045,0.0024,jarvis_3d,jarvis,high,mp-767239,3D
JVASP-46748,Li2 Fe2 Si2 O8,0.0032,0.0044,0.0012000000000000001,jarvis_3d,jarvis,high,mp-767283,3D
JVASP-46775,Li4 Si4 Ni2 O12,3.1016,4.3239,1.2223000000000002,jarvis_3d,jarvis,high,mp-767313,3D
JVASP-46786,Mn6 O4 F4,0.0039,0.3194,0.3155,jarvis_3d,jarvis,high,mp-767330,3D
JVASP-46814,Li6 Cu2 Sb2 O10,0.0042,0.3817,0.3775,jarvis_3d,jarvis,high,mp-767395,3D
JVASP-46820,Li5 Sb1 S1,0.929,1.2863,0.35729999999999995,jarvis_3d,jarvis,high,mp-767409,3D
JVASP-46825,K4 Al2 P2 C2 O14,5.1745,7.8738,2.6993,jarvis_3d,jarvis,high,mp-767417,3D
JVASP-46827,Na6 Cd2 P2 C2 O14,3.4217,6.0471,2.6254000000000004,jarvis_3d,jarvis,high,mp-767430,3D
JVASP-46828,Na6 Sr2 P2 C2 O14,4.2115,7.4896,3.2781000000000002,jarvis_3d,jarvis,high,mp-767431,3D
JVASP-46838,Na4 Y2 P2 C2 O14,4.7244,6.0758,1.3514,jarvis_3d,jarvis,high,mp-767462,3D
JVASP-46894,Li3 Co3 O1 F7,0.0024,0.0033,0.0009000000000000002,jarvis_3d,jarvis,high,mp-765518,3D
JVASP-46915,Li2 V2 F6,0.0007,0.0044,0.0037,jarvis_3d,jarvis,high,mp-765545,3D
JVASP-46982,Mn6 O1 F11,0.0035,0.0057,0.0022,jarvis_3d,jarvis,high,mp-765719,3D
JVASP-47054,Li2 Fe1 Ni1 O4,0.0071,0.0148,0.0077,jarvis_3d,jarvis,high,mp-765813,3D
JVASP-47085,Li1 Fe1 Si2 O6,0.0019,0.0033,0.0014,jarvis_3d,jarvis,high,mp-765849,3D
JVASP-47331,Li3 V1 F8,1.1008,2.1343,1.0335,jarvis_3d,jarvis,high,mp-766949,3D
JVASP-47332,Li3 V1 F8,1.7481,2.4207,0.6726000000000001,jarvis_3d,jarvis,high,mp-766951,3D
JVASP-24591,K4 Te2 I12,1.6414,1.9678,0.3264,jarvis_3d,jarvis,high,mp-27688,3D
JVASP-24592,P2 H8 Br2,4.1705,5.4319,1.2614,jarvis_3d,jarvis,high,mp-27689,3D
JVASP-24595,O12 Y6 U1,1.9749,2.1895,0.21459999999999968,jarvis_3d,jarvis,high,mp-27698,3D
JVASP-24596,Rb2 Co2 Cl6,0.005,0.0068,0.0017999999999999995,jarvis_3d,jarvis,high,mp-27707,3D
JVASP-24597,H12 O4 F4,6.9426,10.3541,3.411500000000001,jarvis_3d,jarvis,high,mp-27714,3D
JVASP-24602,Pd4 I8,0.6501,0.7615,0.11139999999999994,jarvis_3d,jarvis,high,mp-27747,3D
JVASP-24616,Sr2 Be6 O8,4.2683,6.7068,2.4385000000000003,jarvis_3d,jarvis,high,mp-27791,3D
JVASP-24625,P2 I2 Cl12,1.9811,2.8146,0.8334999999999999,jarvis_3d,jarvis,high,mp-27824,3D
JVASP-24630,Br4 Te4 Hg6,1.6526,2.6002,0.9476,jarvis_3d,jarvis,high,mp-27853,3D
JVASP-24638,O8 Al2 Nb2,3.3702,3.9694,0.5991999999999997,jarvis_3d,jarvis,high,mp-27927,3D
JVASP-24653,Al2 Cu2 Cl8,2.7418,3.1286,0.38680000000000003,jarvis_3d,jarvis,high,mp-28020,3D
JVASP-24661,Hf1 B4 H16,5.4157,6.8827,1.4669999999999996,jarvis_3d,jarvis,high,mp-28040,3D
JVASP-24765,Na6 Er2 Cl12,5.4849,7.0401,1.5552000000000001,jarvis_3d,jarvis,high,mp-28542,3D
JVASP-24769,As8 Se16 Rb8,1.6074,2.3847,0.7773000000000001,jarvis_3d,jarvis,high,mp-28562,3D
JVASP-24787,B8 O20 Th4,5.3908,5.5795,0.18870000000000076,jarvis_3d,jarvis,high,mp-28641,3D
JVASP-24834,Si12 P4 H36,4.0993,5.2737,1.1743999999999994,jarvis_3d,jarvis,high,mp-28842,3D
JVASP-25515,H6 F8 K2,7.7747,11.4058,3.631099999999999,jarvis_3d,jarvis,high,mp-29331,3D
JVASP-31796,Se4 W2,1.0455,1.4349,0.38939999999999997,jarvis_3d,jarvis,high,WSe2,3D
JVASP-34195,Na4 O4 C1,2.4905,6.2344,3.7439,jarvis_3d,jarvis,high,mp-546707,3D
JVASP-34197,K1 N1 O2,2.5182,3.8705,1.3522999999999996,jarvis_3d,jarvis,high,mp-546787,3D
JVASP-34199,O4 C4 Rb2,2.7601,4.0077,1.2475999999999998,jarvis_3d,jarvis,high,mp-546810,3D
JVASP-34201,V7 O3,0.0057,0.0189,0.0132,jarvis_3d,jarvis,high,mp-546877,3D
JVASP-34204,Sr1 Sn1 O3,1.2637,2.9594,1.6957,jarvis_3d,jarvis,high,mp-546973,3D
JVASP-34206,S1 O4 F1 Na3,4.6276,9.4551,4.8275,jarvis_3d,jarvis,high,mp-547029,3D
JVASP-34210,O4 Rb4 C1,0.3513,5.0939,4.7425999999999995,jarvis_3d,jarvis,high,mp-547898,3D
JVASP-34213,O6 Ca2 C2,5.883,7.4408,1.5578000000000003,jarvis_3d,jarvis,high,mp-548403,3D
JVASP-34214,U1 Bi2 O6,1.6645,1.751,0.0864999999999998,jarvis_3d,jarvis,high,mp-548598,3D
JVASP-34216,O6 P2 Rb2,4.7966,8.065,3.2683999999999997,jarvis_3d,jarvis,high,mp-548658,3D
JVASP-34219,Si3 O6,5.9861,8.0973,2.1112,jarvis_3d,jarvis,high,mp-549166,3D
JVASP-34226,O4 Cl2 Rb2,2.4242,3.7915,1.3673000000000002,jarvis_3d,jarvis,high,mp-549590,3D
JVASP-34228,Mg2 O2,3.7976,5.718,1.9203999999999999,jarvis_3d,jarvis,high,mp-549706,3D
JVASP-34229,K4 O4 C1,3.2045,6.2646,3.0601,jarvis_3d,jarvis,high,mp-549869,3D
JVASP-34234,Rb4 O4 C1,2.5143,4.8605,2.3462,jarvis_3d,jarvis,high,mp-550314,3D
JVASP-34236,Be2 O4 Zn2,2.9715,4.478,1.5065,jarvis_3d,jarvis,high,mp-550433,3D
JVASP-34241,O3 K1 Cl1,5.0434,6.1948,1.1513999999999998,jarvis_3d,jarvis,high,mp-550506,3D
JVASP-34245,O4 Rb4 C1,2.0022,4.5895,2.5873,jarvis_3d,jarvis,high,mp-550679,3D
JVASP-34247,O4 Rb1 Cl1,5.5037,8.1259,2.6221999999999994,jarvis_3d,jarvis,high,mp-550759,3D
JVASP-34249,Hf1 O2,4.0368,5.7983,1.7614999999999998,jarvis_3d,jarvis,high,mp-550893,3D
JVASP-34250,C1 K4 O4,1.951,5.5301,3.5791,jarvis_3d,jarvis,high,mp-550895,3D
JVASP-34255,Rb4 O4 C1,0.3233,4.1873,3.8639999999999994,jarvis_3d,jarvis,high,mp-551267,3D
JVASP-34257,Rb4 O4 C1,1.664,4.4877,2.8237000000000005,jarvis_3d,jarvis,high,mp-551437,3D
JVASP-34258,O4 K4 C1,2.9388,6.1597,3.2209,jarvis_3d,jarvis,high,mp-551561,3D
JVASP-34259,Zn1 V2 O6,2.2028,2.4688,0.266,jarvis_3d,jarvis,high,mp-551601,3D
JVASP-34262,K4 C1 O4,3.2077,5.9181,2.7104,jarvis_3d,jarvis,high,mp-551736,3D
JVASP-34264,O7 P2 Zn2,4.0558,5.9726,1.9168000000000003,jarvis_3d,jarvis,high,mp-551741,3D
JVASP-34265,O4 Ag1 Cl1,2.4002,5.7073,3.3071,jarvis_3d,jarvis,high,mp-551758,3D
JVASP-34266,O4 Al1 P1,0.0474,2.1731,2.1256999999999997,jarvis_3d,jarvis,high,mp-551798,3D
JVASP-34268,Na4 C1 O4,2.5589,6.4206,3.8617000000000004,jarvis_3d,jarvis,high,mp-551886,3D
JVASP-34269,O6 Al2 Bi2,2.9166,3.9447,1.0281000000000002,jarvis_3d,jarvis,high,mp-551918,3D
JVASP-34270,C2 Pb2 O4 Cl2,2.9103,3.7126,0.8023000000000002,jarvis_3d,jarvis,high,mp-552056,3D
JVASP-34274,O6 Ba2 Pr1 Nb1,3.1151,3.7954,0.6802999999999999,jarvis_3d,jarvis,high,mp-552176,3D
JVASP-34276,O6 Ba2 Ta1 Bi1,2.7713,3.8643,1.093,jarvis_3d,jarvis,high,mp-552200,3D
JVASP-34280,O4 Na4 C1,2.5575,6.3174,3.7599,jarvis_3d,jarvis,high,mp-552623,3D
JVASP-34284,O4 Na4 C1,2.4988,4.3476,1.8487999999999998,jarvis_3d,jarvis,high,mp-552941,3D
JVASP-34285,Rb4 C1 O4,2.5121,4.8612,2.3491,jarvis_3d,jarvis,high,mp-552966,3D
JVASP-34289,Ti3 O6,3.4833,3.8285,0.3452000000000002,jarvis_3d,jarvis,high,mp-553432,3D
JVASP-34290,Zr2 S1 N2,0.8611,1.2288,0.3676999999999999,jarvis_3d,jarvis,high,mp-553875,3D
JVASP-34291,Si4 O8,4.0356,5.7241,1.6885000000000003,jarvis_3d,jarvis,high,mp-553881,3D
JVASP-34293,Ca4 C4 O12,4.7816,6.4372,1.6555999999999997,jarvis_3d,jarvis,high,mp-553939,3D
JVASP-34307,S6 N6 F6,3.8732,5.4325,1.5593,jarvis_3d,jarvis,high,mp-554025,3D
JVASP-34311,H6 C1 N1 F1,6.1632,9.8822,3.7189999999999994,jarvis_3d,jarvis,high,mp-554051,3D
JVASP-34313,K4 C2 O6,4.2656,6.9946,2.729,jarvis_3d,jarvis,high,mp-554072,3D
JVASP-34317,Sn2 S2,1.5768,1.8831,0.3063,jarvis_3d,jarvis,high,mp-554134,3D
JVASP-34336,Na2 S2 O8,3.6395,4.6998,1.0602999999999998,jarvis_3d,jarvis,high,mp-554328,3D
JVASP-34340,Ca1 F2,5.2502,7.1016,1.8514,jarvis_3d,jarvis,high,mp-554355,3D
JVASP-34341,Mg4 Si2 O8,4.6537,6.5565,1.9028,jarvis_3d,jarvis,high,mp-554396,3D
JVASP-34350,Rb1 Fe1 F3,0.0424,0.0486,0.006199999999999997,jarvis_3d,jarvis,high,mp-554465,3D
JVASP-34357,Tb2 Ta2 O8,4.0635,5.2969,1.2333999999999996,jarvis_3d,jarvis,high,mp-554593,3D
JVASP-34365,Sm2 Ta2 Cl2 O7,3.2127,4.3334,1.1207000000000003,jarvis_3d,jarvis,high,mp-554623,3D
JVASP-34370,K3 Sb2 N2 O6 F7,3.0323,4.2001,1.1677999999999997,jarvis_3d,jarvis,high,mp-554645,3D
JVASP-34374,Mg4 Si2 O8,5.0171,6.9045,1.8873999999999995,jarvis_3d,jarvis,high,mp-554663,3D
JVASP-34375,Si8 O16,4.9032,7.609,2.7058,jarvis_3d,jarvis,high,mp-554665,3D
JVASP-34377,Sr1 Ta2 Bi2 O9,2.2173,3.3804,1.1631,jarvis_3d,jarvis,high,mp-554675,3D
JVASP-34384,Mg6 B2 H6 O12,3.634,6.0037,2.3697000000000004,jarvis_3d,jarvis,high,mp-554719,3D
JVASP-34397,Mo4 S4 Br4,0.8846,1.0793,0.19469999999999987,jarvis_3d,jarvis,high,mp-554769,3D
JVASP-34409,Yb8 Cl12 O2,5.5418,7.5359,1.9940999999999995,jarvis_3d,jarvis,high,mp-554831,3D
JVASP-34422,Rb2 K1 Bi1 F6,4.9682,6.7888,1.8205999999999998,jarvis_3d,jarvis,high,mp-554941,3D
JVASP-34424,Na2 I2 O4 F4,4.1286,5.8822,1.7536000000000005,jarvis_3d,jarvis,high,mp-554948,3D
JVASP-34427,K2 Al2 Sb2 O7,3.6171,4.5994,0.9823,jarvis_3d,jarvis,high,mp-554959,3D
JVASP-34432,Ta2 Tl3 Cu3 S8,1.8427,2.0787,0.236,jarvis_3d,jarvis,high,mp-554994,3D
JVASP-34439,K1 Cr1 F3,0.0093,0.1013,0.092,jarvis_3d,jarvis,high,mp-555036,3D
JVASP-34441,Cd2 C4 O8,3.3275,4.6051,1.2776,jarvis_3d,jarvis,high,mp-555064,3D
JVASP-34443,Tb4 Sn2 S10,0.1618,0.8551,0.6933,jarvis_3d,jarvis,high,mp-555069,3D
JVASP-34444,Sn4 I2 F6,2.5441,3.3494,0.8053000000000003,jarvis_3d,jarvis,high,mp-555077,3D
JVASP-34447,Si4 O8,5.6463,8.0538,2.4075000000000006,jarvis_3d,jarvis,high,mp-555147,3D
JVASP-34452,K2 Te2 H2 O2 F8,5.2492,7.5967,2.3475,jarvis_3d,jarvis,high,mp-555202,3D
JVASP-34454,Si4 O8,5.59,8.766,3.176,jarvis_3d,jarvis,high,mp-555251,3D
JVASP-34477,K2 Th1 Cu2 S4,1.0665,1.4029,0.33640000000000003,jarvis_3d,jarvis,high,mp-555425,3D
JVASP-34480,K1 Rb2 Ni1 F6,4.2614,7.3299,3.0685000000000002,jarvis_3d,jarvis,high,mp-555464,3D
JVASP-34482,Sr2 Cl4 O8,2.4194,3.9764,1.557,jarvis_3d,jarvis,high,mp-555474,3D
JVASP-34483,Ag2 H3 I1 O6,0.5507,1.1016,0.5509,jarvis_3d,jarvis,high,mp-555477,3D
JVASP-34484,Si4 O8,5.7474,8.4749,2.7275,jarvis_3d,jarvis,high,mp-555483,3D
JVASP-34485,Zr1 Co1 F6,2.5418,2.918,0.3762000000000003,jarvis_3d,jarvis,high,mp-555491,3D
JVASP-34492,K2 Na2 S2 O8,5.6429,8.9096,3.2666999999999993,jarvis_3d,jarvis,high,mp-555552,3D
JVASP-34494,Ba2 U2 Si4 O16,2.4675,2.5485,0.0810000000000004,jarvis_3d,jarvis,high,mp-555561,3D
JVASP-34498,Ba4 F8,7.0908,8.4041,1.3133,jarvis_3d,jarvis,high,mp-555585,3D
JVASP-34499,Lu2 P2 O8,6.1399,7.7641,1.6242,jarvis_3d,jarvis,high,mp-555586,3D
JVASP-34509,Si8 O16,5.9529,7.9695,2.0166000000000004,jarvis_3d,jarvis,high,mp-555740,3D
JVASP-34568,Y3 F9,5.773,6.9308,1.1578,jarvis_3d,jarvis,high,mp-556242,3D
JVASP-34579,Rb2 Na1 Ni1 F6,5.0017,7.9686,2.9669000000000008,jarvis_3d,jarvis,high,mp-556353,3D
JVASP-34621,Si4 O8,5.7014,8.3988,2.6974,jarvis_3d,jarvis,high,mp-556662,3D
JVASP-34647,Mg2 Al4 O8,5.4815,6.6687,1.1872000000000007,jarvis_3d,jarvis,high,mp-556870,3D
JVASP-34651,K2 Sb2 F12,4.9477,6.7775,1.8297999999999996,jarvis_3d,jarvis,high,mp-556888,3D
JVASP-34657,Na8 S4,2.3593,4.5466,2.1872999999999996,jarvis_3d,jarvis,high,mp-556978,3D
JVASP-34659,Si4 O8,5.6798,8.8614,3.1815999999999995,jarvis_3d,jarvis,high,mp-556985,3D
JVASP-34660,Si4 O8,5.5026,8.142,2.6393999999999993,jarvis_3d,jarvis,high,mp-556994,3D
JVASP-34674,Si4 O8,5.6727,8.0184,2.3457,jarvis_3d,jarvis,high,mp-557118,3D
JVASP-34676,Si4 O8,5.5808,8.3117,2.7309,jarvis_3d,jarvis,high,mp-557134,3D
JVASP-34684,Al2 Tl2 F8,4.4228,5.225,0.8022,jarvis_3d,jarvis,high,mp-557233,3D
JVASP-34685,Si4 O8,5.4731,7.4339,1.9608000000000008,jarvis_3d,jarvis,high,mp-557244,3D
JVASP-34687,Tl4 C2 S6,1.6988,2.1297,0.43090000000000006,jarvis_3d,jarvis,high,mp-557251,3D
JVASP-34704,Cu3 Te1 S3 Cl1,0.8482,1.0717,0.22350000000000014,jarvis_3d,jarvis,high,mp-557510,3D
JVASP-34725,Al8 Bi4 S16,2.6423,3.2638,0.6214999999999997,jarvis_3d,jarvis,high,mp-557737,3D
JVASP-34733,Si4 O8,5.8716,8.5298,2.6582,jarvis_3d,jarvis,high,mp-557837,3D
JVASP-34736,Ba2 Ag4 Hg4 O8,1.2212,1.889,0.6678,jarvis_3d,jarvis,high,mp-557862,3D
JVASP-34760,O3 Cl1 Rb1,5.384,6.3967,1.0126999999999997,jarvis_3d,jarvis,high,mp-23011,3D
JVASP-34769,Ba4 Cl8,4.9868,6.3521,1.3653000000000004,jarvis_3d,jarvis,high,mp-23199,3D
JVASP-34785,H8 B2 Na1 K1,6.4147,8.6298,2.2150999999999996,jarvis_3d,jarvis,high,mp-23758,3D
JVASP-34794,H6 B6 K2,4.9163,5.6741,0.7578000000000005,jarvis_3d,jarvis,high,mp-23950,3D
JVASP-34795,H16 N4 Cl4 O4,5.5832,7.2476,1.6644000000000005,jarvis_3d,jarvis,high,mp-24019,3D
JVASP-34888,Zr3 Ge1 O8,4.1427,4.7484,0.6057000000000006,jarvis_3d,jarvis,high,mp-27888,3D
JVASP-34892,Y2 Cl2 O2,5.089,5.9008,0.8117999999999999,jarvis_3d,jarvis,high,mp-27985,3D
JVASP-34894,H8 O8,4.6031,6.3515,1.7483999999999993,jarvis_3d,jarvis,high,mp-28015,3D
JVASP-34899,O10 Si2 Bi4,2.8125,4.3627,1.5502000000000002,jarvis_3d,jarvis,high,mp-28144,3D
JVASP-34910,F15 Zr3 Pr1,6.0686,6.2519,0.18330000000000002,jarvis_3d,jarvis,high,mp-28781,3D
JVASP-34925,V6 Sb4,0.0071,0.0328,0.0257,jarvis_3d,jarvis,high,mp-29617,3D
JVASP-34942,Ho2 Cl2 O2,5.2077,6.4281,1.2203999999999997,jarvis_3d,jarvis,high,mp-29731,3D
JVASP-34946,H2 F4 Rb2,7.148,10.8045,3.656500000000001,jarvis_3d,jarvis,high,mp-29764,3D
JVASP-34961,Na2 C2 N2,5.1676,7.0219,1.8542999999999994,jarvis_3d,jarvis,high,mp-30053,3D
JVASP-52134,H4 O2,5.7197,7.8212,2.1015000000000006,jarvis_3d,jarvis,high,mp-32959,3D
JVASP-52150,F10 K1 Y3,6.1578,8.2165,2.0587,jarvis_3d,jarvis,high,mp-34042,3D
JVASP-52179,Be2 C4 N4,6.0238,6.9734,0.9496000000000002,jarvis_3d,jarvis,high,mp-35687,3D
JVASP-34999,Mg2 Ag2 Sb2,0.0053,0.0395,0.0342,jarvis_3d,jarvis,high,mp-1018797,3D
JVASP-35012,Nd2 Te2 Cl2,0.1429,0.8898,0.7469,jarvis_3d,jarvis,high,mp-1018818,3D
JVASP-35027,Pd2 Cl4,0.0396,0.9433,0.9037000000000001,jarvis_3d,jarvis,high,mp-1018888,3D
JVASP-35029,Pr2 Co2 Si2,0.008,0.0191,0.011099999999999999,jarvis_3d,jarvis,high,mp-1018892,3D
JVASP-35038,Pr2 Te2 Cl2,0.1409,0.8804,0.7394999999999999,jarvis_3d,jarvis,high,mp-1018941,3D
JVASP-35042,Re4 N2,0.0042,0.0098,0.0056,jarvis_3d,jarvis,high,mp-1018948,3D
JVASP-35043,Rb2 Mn2 Bi2,0.0051,0.0111,0.006,jarvis_3d,jarvis,high,mp-1018949,3D
JVASP-35055,Re2 N4,0.0048,0.0167,0.0119,jarvis_3d,jarvis,high,mp-1019083,3D
JVASP-35057,K2 Mg2 As2,1.3694,2.5861,1.2167000000000001,jarvis_3d,jarvis,high,mp-1019089,3D
JVASP-35061,Si2 C4,0.0289,0.0431,0.0142,jarvis_3d,jarvis,high,mp-1019097,3D
JVASP-35064,Sm2 Mn2 Si2,0.0034,0.0041,0.0007000000000000005,jarvis_3d,jarvis,high,mp-1019102,3D
JVASP-35067,K2 Mg2 Bi2,0.5493,1.3604,0.8111,jarvis_3d,jarvis,high,mp-1019105,3D
JVASP-35069,Sm2 Co2 Si2,0.0016,0.0129,0.0113,jarvis_3d,jarvis,high,mp-1019108,3D
JVASP-35078,Sr2 F4,6.4743,8.1993,1.7249999999999988,jarvis_3d,jarvis,high,mp-1019258,3D
JVASP-35082,Sr2 H3 I1,2.3456,3.2651,0.9194999999999998,jarvis_3d,jarvis,high,mp-1019269,3D
JVASP-35097,Th2 H1 N3,1.7602,2.5277,0.7674999999999998,jarvis_3d,jarvis,high,mp-1019323,3D
JVASP-35105,Th2 Te2 As2,0.0191,0.0314,0.012299999999999998,jarvis_3d,jarvis,high,mp-1019363,3D
JVASP-35106,Al3 Ga1 N4,3.6414,4.4786,0.8372000000000002,jarvis_3d,jarvis,high,mp-1019378,3D
JVASP-35107,Al1 B3 N4,3.8886,5.0173,1.1286999999999998,jarvis_3d,jarvis,high,mp-1019379,3D
JVASP-35108,Al3 B1 N4,3.5983,4.8463,1.2480000000000002,jarvis_3d,jarvis,high,mp-1019380,3D
JVASP-35109,Al1 Ga3 N4,2.4199,3.5794,1.1595,jarvis_3d,jarvis,high,mp-1019508,3D
JVASP-35115,Ba2 Mg1 B6 O12,5.7171,7.6188,1.9017,jarvis_3d,jarvis,high,mp-1019528,3D
JVASP-35117,Ba1 Al2 Si2 O8,5.0194,7.8151,2.7957,jarvis_3d,jarvis,high,mp-1019535,3D
JVASP-35118,Ba1 Al2 Si2 O8,5.0194,7.8143,2.7949,jarvis_3d,jarvis,high,mp-1019536,3D
JVASP-35120,Ba1 Ca3 O4,2.3033,3.7258,1.4224999999999999,jarvis_3d,jarvis,high,mp-1019541,3D
JVASP-35121,Ba2 Zr2 O6,3.2003,3.7861,0.5857999999999999,jarvis_3d,jarvis,high,mp-1019544,3D
JVASP-35123,Be4 Ge4 N8,3.5244,4.6921,1.1677,jarvis_3d,jarvis,high,mp-1019550,3D
JVASP-35124,Ba1 Na2 Mg1 P2 O8,5.3139,7.7475,2.4335999999999993,jarvis_3d,jarvis,high,mp-1019551,3D
JVASP-35125,Ba1 Sr2 Mg1 Si2 O8,5.2615,6.8918,1.6303,jarvis_3d,jarvis,high,mp-1019558,3D
JVASP-35126,Ca4 Ge2 O8,3.8709,5.8891,2.0182,jarvis_3d,jarvis,high,mp-1019561,3D
JVASP-35127,Ca4 Si2 O8,4.4991,6.4971,1.9979999999999993,jarvis_3d,jarvis,high,mp-1019562,3D
JVASP-35128,Ca4 Si2 O8,4.5147,6.3905,1.8758,jarvis_3d,jarvis,high,mp-1019563,3D
JVASP-35129,Ca6 Ge2 O1,0.2108,0.4818,0.271,jarvis_3d,jarvis,high,mp-1019564,3D
JVASP-35132,Ca2 Al4 Si2 O12,4.915,6.5371,1.6220999999999997,jarvis_3d,jarvis,high,mp-1019586,3D
JVASP-35133,Ca2 Al4 Si2 O12,5.0072,6.6634,1.6562000000000001,jarvis_3d,jarvis,high,mp-1019587,3D
JVASP-35150,Ga1 B3 N4,3.9758,4.9542,0.9784000000000002,jarvis_3d,jarvis,high,mp-1019740,3D
JVASP-35151,He4 Si4 O8,6.8687,8.8129,1.9442000000000013,jarvis_3d,jarvis,high,mp-1019742,3D
JVASP-35152,Ga3 B1 N4,2.6243,3.5231,0.8988,jarvis_3d,jarvis,high,mp-1019743,3D
JVASP-35155,K8 P4 O14,3.7681,7.6121,3.844,jarvis_3d,jarvis,high,mp-1019796,3D
JVASP-35156,K8 N1 O3,1.5616,3.8534,2.2918000000000003,jarvis_3d,jarvis,high,mp-1019799,3D
JVASP-35157,K8 N3 O1,1.4525,2.8889,1.4364000000000001,jarvis_3d,jarvis,high,mp-1019800,3D