material_id,formula,pbe_bandgap,hse_bandgap,bandgap_correction,dataset,data_source,confidence,mpid,dimensionality
JVASP-28173,Ho2 I2 O2,3.6602,4.1403,0.48009999999999975,jarvis_2d,jarvis,high,mp-753173,2D
JVASP-60553,I2 O2 Y2,3.122,4.0195,0.8975,jarvis_2d,jarvis,high,mp-753712,2D
JVASP-60554,Cl2 O2 Tm2,5.4043,5.7776,0.3732999999999995,jarvis_2d,jarvis,high,mp-754113,2D
JVASP-28183,Ti2 Sn2 O6,2.2673,2.2632,-0.004100000000000215,jarvis_2d,jarvis,high,mp-754246,2D
JVASP-60556,Br2 O2 Tm2,4.6893,5.1769,0.4875999999999996,jarvis_2d,jarvis,high,mp-754526,2D
JVASP-60564,Br2 O2 Pr2,3.646,4.0403,0.3943000000000003,jarvis_2d,jarvis,high,mp-756702,2D
JVASP-60579,Br2 O2 Y2,4.8031,5.4948,0.6917,jarvis_2d,jarvis,high,mp-768906,2D
JVASP-60585,Cl2 O2 Tm2,4.6656,5.2781,0.6124999999999998,jarvis_2d,jarvis,high,mp-772295,2D
JVASP-28250,Ti2 Ge2 O6,1.8842,1.9108,0.026599999999999957,jarvis_2d,jarvis,high,mp-780260,2D
JVASP-28262,Ga2 H2 O4,3.2496,3.9218,0.6722000000000001,jarvis_2d,jarvis,high,mp-867675,2D
JVASP-28270,Bi4 S8,1.4482,1.748,0.29980000000000007,jarvis_2d,jarvis,high,mp-971673,2D
JVASP-60609,I2 Lu2 O2,1.9654,3.915,1.9496,jarvis_2d,jarvis,high,mp-973585,2D
JVASP-28277,B2 C3 N6,2.526,2.0504,-0.4756,jarvis_2d,jarvis,high,mp-989460,2D
JVASP-28280,Ag2 Bi2 O4,2.0585,2.4596,0.4011,jarvis_2d,jarvis,high,mp-996969,2D
JVASP-60552,Ca1 Pb1 I4,2.217,3.4295,1.2125,jarvis_2d,jarvis,high,mp-753670,2D
JVASP-60473,Pr6 Os2 I6,0.0042,0.0217,0.0175,jarvis_2d,jarvis,high,mp-570779,2D
JVASP-60241,Ge3 Sb2 O9,3.9863,4.83,0.8437000000000001,jarvis_2d,jarvis,high,mp-17708,2D
JVASP-60253,U2 Te6,0.0001,0.0007,0.0006,jarvis_2d,jarvis,high,mp-22231,2D
JVASP-60440,I8 Hg4,1.8036,2.1636,0.3600000000000001,jarvis_2d,jarvis,high,mp-567471,2D
JVASP-8,Mo4 Te8,0.0015999999999998238,0.0034999999999998366,0.0019000000000000128,jarvis_ml,jarvis,high,mp-MoTe2Td,mixed
JVASP-1053,Yb1,0.0354000000000001,0.037799999999999834,0.0023999999999997357,jarvis_ml,jarvis,high,mp-162,mixed
JVASP-904,K1,0.04639999999999997,0.0494,0.0030000000000000304,jarvis_ml,jarvis,high,mp-58,mixed
JVASP-25252,Cl16,3.2738,5.5393,2.2655,jarvis_ml,jarvis,high,mp-570778,mixed
JVASP-9333,Te1 W2 O8,1.0792,3.9135000000000004,2.8343000000000007,jarvis_ml,jarvis,high,mvc-667,mixed
JVASP-9340,Ti1 W2 O8,1.6289999999999998,3.2529999999999997,1.6239999999999999,jarvis_ml,jarvis,high,mvc-678,mixed
JVASP-9344,Al1 Sn1 W2 O8,0.001000000000000334,0.01440000000000019,0.013399999999999856,jarvis_ml,jarvis,high,mvc-689,mixed
JVASP-9888,Mg2 Sn1 W1 O6,1.815,2.5507999999999997,0.7357999999999998,jarvis_ml,jarvis,high,mvc-5921,mixed
JVASP-12238,Cd2 W2 O8,2.1294,3.52,1.3906,jarvis_ml,jarvis,high,mp-19387,mixed
JVASP-21522,K4 B4 F16,8.5811,12.49,3.908900000000001,jarvis_ml,jarvis,high,mp-4929,mixed
JVASP-260,S2 Pb2,1.3037999999999998,2.0300000000000002,0.7262000000000004,jarvis_ml,jarvis,high,mp-20526,mixed
JVASP-13800,B8 As4 Cl8,3.3388999999999998,4.2562,0.9173,jarvis_ml,jarvis,high,mp-29028,mixed
JVASP-13924,Mo4 S8 Cl12,1.4574,1.7566,0.2991999999999999,jarvis_ml,jarvis,high,mp-27866,mixed
JVASP-14022,As2 S6 Cl6 F12,1.6469,1.9666,0.3196999999999999,jarvis_ml,jarvis,high,mp-23112,mixed
JVASP-14029,H8 N2 O8 Tc2,3.3731999999999998,3.7792,0.40600000000000014,jarvis_ml,jarvis,high,mp-23925,mixed
JVASP-14055,Ba2 Al4 Cl16,5.4773,7.0282,1.5509000000000004,jarvis_ml,jarvis,high,mp-30023,mixed
JVASP-14131,Ga4 Cu2 Cl16,3.4071,5.0214,1.6143,jarvis_ml,jarvis,high,mp-29300,mixed
JVASP-28398,Mo1 S2,1.6574,1.6956000000000002,0.038200000000000234,jarvis_ml,jarvis,high,mp-1023924,mixed
JVASP-28408,Mo1 Se2,1.4454,1.4574000000000003,0.012000000000000233,jarvis_ml,jarvis,high,mp-1023934,mixed
JVASP-28411,W1 S2,1.3372,1.8713,0.5341,jarvis_ml,jarvis,high,mp-1023937,mixed
JVASP-28412,Te4 Mo2,0.15250000000000075,0.33889999999999976,0.186399999999999,jarvis_ml,jarvis,high,mp-1023938,mixed
JVASP-28415,Te4 Mo1 W1,0.9304000000000006,1.1638000000000002,0.2333999999999996,jarvis_ml,jarvis,high,mp-1023941,mixed
JVASP-28483,Te4 Mo1 W2 Se2,0.27169999999999916,0.34440000000000026,0.0727000000000011,jarvis_ml,jarvis,high,mp-1025682,mixed
JVASP-28510,Te2 Mo2 W1 Se2 S2,0.2965,0.5245999999999995,0.22809999999999953,jarvis_ml,jarvis,high,mp-1025778,mixed
JVASP-28534,Te2 Mo2 W1 Se4,0.0004999999999997229,0.20330000000000048,0.20280000000000076,jarvis_ml,jarvis,high,mp-1025885,mixed
JVASP-28562,Mo3 Se2 S4,0.2347999999999999,0.4356,0.2008000000000001,jarvis_ml,jarvis,high,mp-1025988,mixed
JVASP-28986,Te2 Mo1 W3 S6,0.0023999999999997357,0.08769999999999989,0.08530000000000015,jarvis_ml,jarvis,high,mp-1029118,mixed
JVASP-29328,Ni1 Cl2 O8,3.8482000000000003,5.2798,1.4315999999999995,jarvis_ml,jarvis,high,mp-540966,mixed
JVASP-29976,Ta2 O5,3.0443,4.4097,1.3654000000000002,jarvis_ml,jarvis,high,mp-676422,mixed
JVASP-30562,Co2 O4,0.005399999999999849,0.015600000000000058,0.010200000000000209,jarvis_ml,jarvis,high,mvc-11564,mixed
JVASP-30644,Mo3 O8,0.2517999999999998,0.5881999999999996,0.3363999999999998,jarvis_ml,jarvis,high,mvc-15991,mixed
JVASP-50715,Li2 Ag2 F4,1.3253,3.8975000000000004,2.5722000000000005,jarvis_ml,jarvis,high,mp-758604,mixed