material_id,formula,pbe_bandgap,hse_bandgap,bandgap_correction,dataset,data_source,confidence,mpid,dimensionality
JVASP-36889,Rb1 Sn1 F3,3.7219,5.6747,1.9527999999999994,jarvis_3d,jarvis,high,mp-998193,3D
JVASP-36893,Rb1 Ca1 Cl3,5.2221,7.0752,1.8530999999999995,jarvis_3d,jarvis,high,mp-998197,3D
JVASP-36899,K1 Ge1 Cl3,1.7594,2.1653,0.4058999999999997,jarvis_3d,jarvis,high,mp-998231,3D
JVASP-36905,Rb2 Se2 Br6,1.6094,2.5455,0.9361000000000002,jarvis_3d,jarvis,high,mp-998299,3D
JVASP-36913,Rb2 Ca2 Cl6,5.4205,7.1526,1.7321,jarvis_3d,jarvis,high,mp-998324,3D
JVASP-36914,Rb1 Ca1 I3,3.6028,4.4524,0.8496000000000001,jarvis_3d,jarvis,high,mp-998325,3D
JVASP-36917,Ba1 Zr1 Se3,0.037,0.3707,0.3337,jarvis_3d,jarvis,high,mp-998350,3D
JVASP-36918,Ba1 Hf1 S3,0.7357,1.2425,0.5067999999999999,jarvis_3d,jarvis,high,mp-998352,3D
JVASP-36919,Mg1 Ag1 F3,2.121,4.882,2.7609999999999997,jarvis_3d,jarvis,high,mp-998358,3D
JVASP-36925,K2 Cr2 Cl6,0.0073,0.0272,0.019899999999999998,jarvis_3d,jarvis,high,mp-998397,3D
JVASP-36926,In1 Sn1 Br3,1.305,1.4154,0.11040000000000005,jarvis_3d,jarvis,high,mp-998398,3D
JVASP-36927,K1 Ge1 Br3,1.4113,1.6264,0.21510000000000007,jarvis_3d,jarvis,high,mp-998412,3D
JVASP-36929,Cu1 Ag1 F3,0.0604,0.0668,0.006399999999999996,jarvis_3d,jarvis,high,mp-998414,3D
JVASP-36932,Mg2 Ag2 F6,2.1845,4.7152,2.5307000000000004,jarvis_3d,jarvis,high,mp-998418,3D
JVASP-36933,Ba4 Hf4 S12,0.8625,1.7803,0.9178,jarvis_3d,jarvis,high,mp-998419,3D
JVASP-36935,K2 Ca2 Cl6,5.6824,7.6693,1.9868999999999994,jarvis_3d,jarvis,high,mp-998421,3D
JVASP-36947,In1 Pb1 Cl3,3.0038,3.7597,0.7559,jarvis_3d,jarvis,high,mp-998535,3D
JVASP-36948,Rb4 Ca4 Br12,4.4788,5.7693,1.2905000000000006,jarvis_3d,jarvis,high,mp-998536,3D
JVASP-36949,Zn2 Ag2 F6,1.264,4.0146,2.7505999999999995,jarvis_3d,jarvis,high,mp-998537,3D
JVASP-36951,Ba1 Hf1 O3,3.6828,5.0629,1.3801,jarvis_3d,jarvis,high,mp-998552,3D
JVASP-36954,In2 Sn2 Br6,2.3122,2.7488,0.4366000000000003,jarvis_3d,jarvis,high,mp-998555,3D
JVASP-36956,In2 Sn2 Cl6,2.8234,3.293,0.46960000000000024,jarvis_3d,jarvis,high,mp-998567,3D
JVASP-36957,K1 Ag1 Br3,0.0154,0.1046,0.0892,jarvis_3d,jarvis,high,mp-998568,3D
JVASP-36958,In2 Ge2 Cl6,2.8397,3.5995,0.7597999999999998,jarvis_3d,jarvis,high,mp-998569,3D
JVASP-36960,Rb4 Ca4 I12,3.4642,4.3826,0.9184000000000001,jarvis_3d,jarvis,high,mp-998592,3D
JVASP-36961,K2 Ca2 Br6,4.5331,5.9096,1.3765,jarvis_3d,jarvis,high,mp-998599,3D
JVASP-36962,K1 Ca1 Cl3,4.9739,7.0386,2.0646999999999993,jarvis_3d,jarvis,high,mp-998601,3D
JVASP-36966,Rb1 Pb1 Cl3,2.5259,3.3272,0.8012999999999999,jarvis_3d,jarvis,high,mp-998605,3D
JVASP-36971,Tl1 Ag1 Cl3,0.0134,0.1075,0.0941,jarvis_3d,jarvis,high,mp-998610,3D
JVASP-36972,Rb2 Sn2 Cl6,2.6281,3.3809,0.7528000000000001,jarvis_3d,jarvis,high,mp-998611,3D
JVASP-36973,K2 Ge2 Br6,2.9135,3.9479,1.0344000000000002,jarvis_3d,jarvis,high,mp-998612,3D
JVASP-36975,Ca2 Tl2 F6,4.5956,5.7226,1.1269999999999998,jarvis_3d,jarvis,high,mp-998615,3D
JVASP-36976,Rb2 Sn2 F6,4.1113,5.835,1.7237,jarvis_3d,jarvis,high,mp-998620,3D
JVASP-36977,Tl1 Cd1 F3,3.9918,5.4807,1.4888999999999997,jarvis_3d,jarvis,high,mp-998623,3D
JVASP-36980,Tl1 Hg1 F3,2.1312,3.8922,1.7609999999999997,jarvis_3d,jarvis,high,mp-998710,3D
JVASP-36981,Tl2 Ge2 F6,3.4359,4.6483,1.2123999999999997,jarvis_3d,jarvis,high,mp-998711,3D
JVASP-36982,Tl1 Ge1 F3,3.2417,5.1566,1.9149000000000003,jarvis_3d,jarvis,high,mp-998712,3D
JVASP-36983,Tl2 In2 Cl6,2.1379,2.6376,0.4996999999999998,jarvis_3d,jarvis,high,mp-998713,3D
JVASP-36985,Mg1 Tl1 F3,4.8017,5.5175,0.7157999999999998,jarvis_3d,jarvis,high,mp-998739,3D
JVASP-36986,Tl2 Ge2 Cl6,3.2683,4.7548,1.4865000000000004,jarvis_3d,jarvis,high,mp-998743,3D
JVASP-36988,Tl1 Zn1 F3,4.3832,5.3118,0.9285999999999994,jarvis_3d,jarvis,high,mp-998745,3D
JVASP-36991,K1 Ca1 Br3,4.164,5.8939,1.7299000000000007,jarvis_3d,jarvis,high,mp-998749,3D
JVASP-36994,Rb2 Sr2 Cl6,5.3129,8.0753,2.7624000000000004,jarvis_3d,jarvis,high,mp-998755,3D
JVASP-36997,Rb4 Sn4 Br12,2.4315,3.2386,0.8070999999999997,jarvis_3d,jarvis,high,mp-998778,3D
JVASP-37000,Ca2 Tl2 Cl6,4.1593,5.2068,1.0475000000000003,jarvis_3d,jarvis,high,mp-998787,3D
JVASP-37004,Y1 C1,0.045,0.0727,0.027700000000000002,jarvis_3d,jarvis,high,mp-998894,3D
JVASP-37007,Y1 N1,0.0603,0.8237,0.7634,jarvis_3d,jarvis,high,mp-998899,3D
JVASP-37013,K1 O3,3.5277,4.999,1.4712999999999998,jarvis_3d,jarvis,high,mp-998913,3D
JVASP-37014,K4 O2,2.0017,5.281,3.2792999999999997,jarvis_3d,jarvis,high,mp-998914,3D
JVASP-37015,K4 O2,1.9916,5.2587,3.2671,jarvis_3d,jarvis,high,mp-998915,3D
JVASP-37016,K4 O8,4.4385,7.2319,2.7934,jarvis_3d,jarvis,high,mp-998916,3D
JVASP-37017,K6 O6,2.3048,4.2401,1.9352999999999998,jarvis_3d,jarvis,high,mp-998917,3D
JVASP-37022,K6 O3,2.3401,4.618,2.2779000000000003,jarvis_3d,jarvis,high,mp-998929,3D
JVASP-37027,Ti1 Ga1 Fe1 Co1,0.063,0.1984,0.1354,jarvis_3d,jarvis,high,mp-998964,3D
JVASP-37032,Ti1 Fe1 Co1 Si1,0.0163,0.0208,0.0045000000000000005,jarvis_3d,jarvis,high,mp-998971,3D
JVASP-37037,Ti1 Al1 Fe1 Co1,0.0363,0.1778,0.14150000000000001,jarvis_3d,jarvis,high,mp-998980,3D
JVASP-37038,Ti1 Al3,0.0007,0.0066,0.0059,jarvis_3d,jarvis,high,mp-998981,3D
JVASP-37039,Ti3 Sn1,0.0071,0.0109,0.0037999999999999996,jarvis_3d,jarvis,high,mp-998982,3D
JVASP-37041,Ti3 Si1,0.019,0.028,0.009000000000000001,jarvis_3d,jarvis,high,mp-998986,3D
JVASP-37047,Ti2 Mn1 Si1,0.0121,0.0593,0.0472,jarvis_3d,jarvis,high,mp-999047,3D
JVASP-37048,Ti2 Mn1 Al1,0.0124,0.033,0.0206,jarvis_3d,jarvis,high,mp-999052,3D
JVASP-37062,Ti2 Al1 Cr1,0.0868,0.1705,0.08370000000000001,jarvis_3d,jarvis,high,mp-999096,3D
JVASP-37065,Tb1 Tl1 S2,1.6441,2.2858,0.6417000000000002,jarvis_3d,jarvis,high,mp-999119,3D
JVASP-37067,Tb1 Tl1 Te2,0.6626,1.0662,0.40360000000000007,jarvis_3d,jarvis,high,mp-999121,3D
JVASP-37069,Tb1 H3,0.0592,0.3617,0.3025,jarvis_3d,jarvis,high,mp-999123,3D
JVASP-37070,Tb2 Pd2,0.0004,0.0033,0.0029,jarvis_3d,jarvis,high,mp-999124,3D
JVASP-37071,Tb1 Na1 S2,2.308,3.2487,0.9407000000000001,jarvis_3d,jarvis,high,mp-999126,3D
JVASP-37072,Tb1 Na1 Se2,1.8621,2.9527,1.0906,jarvis_3d,jarvis,high,mp-999127,3D
JVASP-37073,Tb1 K1 S2,2.369,3.2828,0.9137999999999997,jarvis_3d,jarvis,high,mp-999129,3D
JVASP-37075,Sm1 Tl1 Te2,0.6485,1.0131,0.3645999999999999,jarvis_3d,jarvis,high,mp-999132,3D
JVASP-37076,Ta2 Pd2,0.0002,0.0008,0.0006000000000000001,jarvis_3d,jarvis,high,mp-999133,3D
JVASP-37077,Ta1 Cu1 N2,0.0399,0.5817,0.5418,jarvis_3d,jarvis,high,mp-999135,3D
JVASP-37078,Ta1 In1 Se2,0.0099,0.0113,0.0013999999999999985,jarvis_3d,jarvis,high,mp-999136,3D
JVASP-37079,Sm1 Tl1 Se2,1.2256,1.7235,0.4979,jarvis_3d,jarvis,high,mp-999137,3D
JVASP-37080,Sm1 Tl1 S2,1.9913,2.5217,0.5304,jarvis_3d,jarvis,high,mp-999138,3D
JVASP-37085,Sm1 Ni1 C2,0.0002,0.0016,0.0014,jarvis_3d,jarvis,high,mp-999144,3D
JVASP-37086,Sm2 Ni2,0.0016,0.0033,0.0017,jarvis_3d,jarvis,high,mp-999145,3D
JVASP-37088,Sm1 Fe1 C2,0.0058,0.022,0.0162,jarvis_3d,jarvis,high,mp-999178,3D
JVASP-37091,Sm1 Co1 C2,0.0069,0.0296,0.0227,jarvis_3d,jarvis,high,mp-999190,3D
JVASP-37092,Si2 Ni2,0.0017,0.0033,0.0016,jarvis_3d,jarvis,high,mp-999192,3D
JVASP-37106,Sc2 Mn1 C1,0.0037,0.0167,0.013,jarvis_3d,jarvis,high,mp-999257,3D
JVASP-37107,Sc2 Mn1 Ge1,0.0312,0.0605,0.0293,jarvis_3d,jarvis,high,mp-999258,3D
JVASP-37111,Rb1 Y1 S2,2.3873,3.2821,0.8947999999999996,jarvis_3d,jarvis,high,mp-999265,3D
JVASP-37114,Rb1 Sm1 Te2,1.2913,1.9493,0.6580000000000001,jarvis_3d,jarvis,high,mp-999269,3D
JVASP-37115,Rb1 Na1 H2,2.5783,4.5919,2.0136,jarvis_3d,jarvis,high,mp-999274,3D
JVASP-37117,Pr1 Tl1 Te2,0.6824,1.0087,0.3262999999999999,jarvis_3d,jarvis,high,mp-999288,3D
JVASP-37118,Pr1 Tl1 Se2,1.2269,1.6398,0.4128999999999998,jarvis_3d,jarvis,high,mp-999289,3D
JVASP-37122,Pd2 N2,0.0018,0.005,0.0032,jarvis_3d,jarvis,high,mp-999293,3D
JVASP-37123,Pd3 N1,0.0081,0.0138,0.0057,jarvis_3d,jarvis,high,mp-999294,3D
JVASP-37124,Pr2 N2,1.0787,1.7352,0.6565000000000001,jarvis_3d,jarvis,high,mp-999295,3D
JVASP-37127,Pd2 N2,0.0023,0.0086,0.0063,jarvis_3d,jarvis,high,mp-999303,3D
JVASP-37129,Pr2 Au2,0.0036,0.0068,0.0031999999999999997,jarvis_3d,jarvis,high,mp-999306,3D
JVASP-37134,Nd1 Tl1 Te2,0.6647,1.0011,0.33640000000000014,jarvis_3d,jarvis,high,mp-999319,3D
JVASP-37137,Nd2 Au2,0.0004,0.0031,0.0026999999999999997,jarvis_3d,jarvis,high,mp-999338,3D
JVASP-37145,Nb1 Cr3,0.0119,0.0169,0.0049999999999999975,jarvis_3d,jarvis,high,mp-999390,3D
JVASP-37151,Nb3 Cr1,0.0041,0.0046,0.0004999999999999996,jarvis_3d,jarvis,high,mp-999439,3D
JVASP-37153,Nb3 Cr1,0.0003,0.002,0.0017000000000000001,jarvis_3d,jarvis,high,mp-999441,3D
JVASP-37155,Na1 Sm1 Te2,1.1732,1.8186,0.6454,jarvis_3d,jarvis,high,mp-999447,3D
JVASP-37156,Na1 Y1 Se2,1.9225,2.4943,0.5717999999999999,jarvis_3d,jarvis,high,mp-999448,3D
JVASP-37157,Na1 Sm1 Se2,1.8007,2.8279,1.0272000000000001,jarvis_3d,jarvis,high,mp-999450,3D
JVASP-37158,Na1 V1 S2,0.017,0.0642,0.04719999999999999,jarvis_3d,jarvis,high,mp-999454,3D
JVASP-37159,Na1 Sm1 S2,2.2425,3.1971,0.9545999999999997,jarvis_3d,jarvis,high,mp-999455,3D
JVASP-37160,Na1 Sc1 S2,1.6925,2.3437,0.6512000000000002,jarvis_3d,jarvis,high,mp-999460,3D
JVASP-37161,Na1 Pr1 Se2,1.7801,2.5469,0.7667999999999999,jarvis_3d,jarvis,high,mp-999461,3D
JVASP-37163,Na1 Nd1 S2,2.2292,3.1209,0.8916999999999997,jarvis_3d,jarvis,high,mp-999470,3D
JVASP-37164,Na1 Nd1 Se2,1.7886,2.601,0.8124,jarvis_3d,jarvis,high,mp-999471,3D
JVASP-37165,Na1 La1 Se2,2.0833,2.9216,0.8383000000000003,jarvis_3d,jarvis,high,mp-999472,3D
JVASP-37167,Na1 Ho1 Se2,1.9334,2.9516,1.0182,jarvis_3d,jarvis,high,mp-999474,3D
JVASP-37170,Na1 Dy1 Se2,1.9133,2.6893,0.7759999999999998,jarvis_3d,jarvis,high,mp-999488,3D
JVASP-37172,Na1 Dy1 S2,2.3267,3.2739,0.9471999999999996,jarvis_3d,jarvis,high,mp-999490,3D
JVASP-37174,Na3 N1,1.0832,1.3213,0.23809999999999998,jarvis_3d,jarvis,high,mp-999495,3D
JVASP-37175,Na3 N1,0.3635,0.5799,0.21639999999999998,jarvis_3d,jarvis,high,mp-999496,3D
JVASP-37179,Mn1 Si1 Ni2,0.009,0.0135,0.0045000000000000005,jarvis_3d,jarvis,high,mp-999508,3D
JVASP-37185,Mn1 Co3,0.0005,0.002,0.0015,jarvis_3d,jarvis,high,mp-999543,3D
JVASP-37188,W1 N2,1.7579,1.7908,0.03289999999999993,jarvis_3d,jarvis,high,mp-999549,3D
JVASP-37190,Mn1 Ga1 Fe1 Co1,0.002,0.0089,0.0069,jarvis_3d,jarvis,high,mp-999552,3D
JVASP-37193,Mn2 Cu1 Sb1,0.0019,0.0051,0.0032000000000000006,jarvis_3d,jarvis,high,mp-999566,3D
JVASP-37194,Mn2 Si1 Ru1,0.0022,0.023,0.0208,jarvis_3d,jarvis,high,mp-999576,3D
JVASP-37197,Mg3 Mn1,0.01,0.0361,0.026099999999999998,jarvis_3d,jarvis,high,mp-978285,3D
JVASP-37199,Mg3 Mo1,0.0069,0.0358,0.0289,jarvis_3d,jarvis,high,mp-978287,3D
JVASP-37207,Si1 Pb1 O3,2.0364,2.1413,0.10490000000000022,jarvis_3d,jarvis,high,mp-978489,3D
JVASP-37215,Si2 Tc1 Os1,0.0178,0.0209,0.0030999999999999986,jarvis_3d,jarvis,high,mp-978500,3D
JVASP-37219,Sm1 Ga1 O3,2.8989,4.0956,1.1967000000000003,jarvis_3d,jarvis,high,mp-978504,3D
JVASP-37220,Sm1 Lu1 Ru2,0.0044,0.0381,0.0337,jarvis_3d,jarvis,high,mp-978505,3D
JVASP-37223,Si3 Os1,0.0011,0.0019,0.0007999999999999999,jarvis_3d,jarvis,high,mp-978508,3D
JVASP-37227,Sm1 Tm1 Mg2,0.0107,0.0255,0.014799999999999999,jarvis_3d,jarvis,high,mp-978512,3D
JVASP-37238,Sc2 Zn1 Cu1,0.0011,0.0138,0.0127,jarvis_3d,jarvis,high,mp-978523,3D
JVASP-37239,Si3 Ag1,0.0008,0.0075,0.006699999999999999,jarvis_3d,jarvis,high,mp-978524,3D
JVASP-37254,Sm1 Lu1 Tl2,0.0055,0.0129,0.0074,jarvis_3d,jarvis,high,mp-978544,3D
JVASP-37258,Sm1 Er3,0.0021,0.0032,0.0011000000000000003,jarvis_3d,jarvis,high,mp-978548,3D
JVASP-37260,Si1 Rh3,0.0007,0.0019,0.0012000000000000001,jarvis_3d,jarvis,high,mp-978552,3D
JVASP-37261,Sm1 Re3,0.0018,0.0027,0.0009000000000000002,jarvis_3d,jarvis,high,mp-978554,3D
JVASP-37262,Sm2 Cd1 Ir1,0.0012,0.0035,0.0023,jarvis_3d,jarvis,high,mp-978555,3D
JVASP-37278,Sm2 Fe2 P2,0.0004,0.0194,0.019,jarvis_3d,jarvis,high,mp-978695,3D
JVASP-37282,Sm3 Hg1,0.0007,0.0009,0.00019999999999999998,jarvis_3d,jarvis,high,mp-978795,3D
JVASP-37289,Sm2 Tl1 Hg1,0.0106,0.0163,0.0056999999999999985,jarvis_3d,jarvis,high,mp-978807,3D
JVASP-37301,Sr1 Ca3 O4,3.3796,4.8938,1.5141999999999998,jarvis_3d,jarvis,high,mp-978844,3D
JVASP-37303,Sn2 I4,1.2788,1.5145,0.23570000000000002,jarvis_3d,jarvis,high,mp-978846,3D
JVASP-37304,Sr1 Ga1 Ge1 H1,0.2415,0.9693,0.7278,jarvis_3d,jarvis,high,mp-978847,3D
JVASP-37305,Sm3 Mg1,0.0046,0.0073,0.0027,jarvis_3d,jarvis,high,mp-978849,3D
JVASP-37308,Sr1 Ga1 Sn1 H1,0.0405,0.7392,0.6987,jarvis_3d,jarvis,high,mp-978852,3D
JVASP-37313,Sr1 Hg1 O2,2.3665,3.2993,0.9328000000000003,jarvis_3d,jarvis,high,mp-978857,3D
JVASP-37319,Sm2 In1 Ag1,0.0085,0.0171,0.0086,jarvis_3d,jarvis,high,mp-978891,3D
JVASP-37321,Tb1 Tl1 Ag2,0.0307,0.0335,0.0028000000000000004,jarvis_3d,jarvis,high,mp-978907,3D
JVASP-37327,Tb1 Zr1,0.0093,0.0098,0.0005000000000000004,jarvis_3d,jarvis,high,mp-978918,3D
JVASP-37329,Tb2 Be2 O5,2.5404,3.8777,1.3373,jarvis_3d,jarvis,high,mp-978920,3D
JVASP-37334,Sm3 Th1,0.0025,0.0046,0.0021,jarvis_3d,jarvis,high,mp-978939,3D
JVASP-37335,Sm3 Ho1,0.0012,0.003,0.0018000000000000002,jarvis_3d,jarvis,high,mp-978949,3D
JVASP-37338,Sn1 Pb1 O3,1.2216,2.756,1.5343999999999998,jarvis_3d,jarvis,high,mp-978952,3D
JVASP-37340,Sm3 Tm1,0.0043,0.0171,0.0128,jarvis_3d,jarvis,high,mp-978960,3D
JVASP-37346,Ti6 O4,0.0026,0.0074,0.0048000000000000004,jarvis_3d,jarvis,high,mp-978968,3D
JVASP-37347,Tl1 Au3,0.001,0.0022,0.0012000000000000001,jarvis_3d,jarvis,high,mp-978969,3D
JVASP-37350,Tb1 Y1 Tl2,0.0122,0.0219,0.009699999999999999,jarvis_3d,jarvis,high,mp-978975,3D
JVASP-37353,Sn2 Br4,1.8209,2.1586,0.3376999999999999,jarvis_3d,jarvis,high,mp-978985,3D
JVASP-37378,Tm2 Be1 Os1,0.0162,0.08,0.0638,jarvis_3d,jarvis,high,mp-979042,3D
JVASP-37381,Tm2 Cu1 Pd1,0.0013,0.0113,0.009999999999999998,jarvis_3d,jarvis,high,mp-979045,3D
JVASP-37384,Tm1 Mg2 Sc1,0.0064,0.0781,0.0717,jarvis_3d,jarvis,high,mp-979073,3D
JVASP-37390,Sr1 Ga1 Si1 H1,0.5721,1.0371,0.46499999999999986,jarvis_3d,jarvis,high,mp-979137,3D
JVASP-37391,Tm2 Ag1 Hg1,0.0456,0.0504,0.004799999999999999,jarvis_3d,jarvis,high,mp-979176,3D
JVASP-37398,Ti2 Pd2,0.0003,0.0005,0.00020000000000000004,jarvis_3d,jarvis,high,mp-979261,3D
JVASP-37399,Tl3 F1,0.0024,0.0024,0.0,jarvis_3d,jarvis,high,mp-979262,3D
JVASP-37411,V3 Cu1,0.0139,0.0207,0.0068000000000000005,jarvis_3d,jarvis,high,mp-979283,3D
JVASP-37423,W2 S2 Cl8,1.6973,2.3133,0.6159999999999999,jarvis_3d,jarvis,high,mp-979414,3D
JVASP-37429,Y1 Er1 Zn2,0.0151,0.0217,0.0066,jarvis_3d,jarvis,high,mp-979421,3D
JVASP-37464,Sr6 Si2 O10,4.2177,5.7435,1.5258000000000003,jarvis_3d,jarvis,high,mp-979932,3D
JVASP-37468,Yb3 Rb1,0.0043,0.0091,0.0048000000000000004,jarvis_3d,jarvis,high,mp-979936,3D
JVASP-37471,Yb3 W1,0.0025,0.0095,0.006999999999999999,jarvis_3d,jarvis,high,mp-979939,3D
JVASP-37484,Yb3 Mg1,0.0035,0.0107,0.0072,jarvis_3d,jarvis,high,mp-979956,3D
JVASP-37520,Sr1 Al1 Ge1 H1,0.8852,1.2384,0.35319999999999996,jarvis_3d,jarvis,high,mp-980057,3D
JVASP-37523,Tb1 Ag3,0.0018,0.002,0.0002000000000000001,jarvis_3d,jarvis,high,mp-980060,3D
JVASP-37534,Sn1 H8 N2 F6,5.2539,7.2996,2.0457,jarvis_3d,jarvis,high,mp-980083,3D
JVASP-37536,Ti2 Pd2,0.0,0.0009,0.0009,jarvis_3d,jarvis,high,mp-980094,3D
JVASP-37542,Yb3 Na1,0.0023,0.0076,0.0053,jarvis_3d,jarvis,high,mp-980189,3D
JVASP-37545,Yb1 Os3,0.0015,0.0026,0.0010999999999999998,jarvis_3d,jarvis,high,mp-980192,3D
JVASP-37546,Ti2 H4 Pd1,0.0039,0.0041,0.00020000000000000052,jarvis_3d,jarvis,high,mp-980193,3D
JVASP-37549,Yb1 Tm3,0.0044,0.008,0.0036,jarvis_3d,jarvis,high,mp-980196,3D
JVASP-37554,Tm1 Hf1 Ir2,0.0112,0.0168,0.005599999999999999,jarvis_3d,jarvis,high,mp-980201,3D
JVASP-37562,Yb2 Nd2 O5,0.3933,1.9735,1.5802,jarvis_3d,jarvis,high,mp-980386,3D
JVASP-37582,Tm1 Lu1 Co2,0.0039,0.0328,0.028900000000000002,jarvis_3d,jarvis,high,mp-980669,3D
JVASP-37600,Sr3 Cr1,0.0036,0.0077,0.0041,jarvis_3d,jarvis,high,mp-980946,3D
JVASP-37602,Sr1 Ca1 In2,0.0236,0.0343,0.010699999999999998,jarvis_3d,jarvis,high,mp-980948,3D
JVASP-37603,Sr3 Cd1 O4,0.6463,2.7293,2.0829999999999997,jarvis_3d,jarvis,high,mp-981103,3D
JVASP-37611,Tm1 Mg2,0.0004,0.0016,0.0012000000000000001,jarvis_3d,jarvis,high,mp-981212,3D
JVASP-37616,U1 Cr3,0.0006,0.0007,0.00010000000000000005,jarvis_3d,jarvis,high,mp-981233,3D
JVASP-37632,V2 Re1 Ru1,0.0226,0.0504,0.027800000000000002,jarvis_3d,jarvis,high,mp-981365,3D
JVASP-37638,Yb1 Sr3,0.0023,0.015,0.0127,jarvis_3d,jarvis,high,mp-981378,3D
JVASP-37639,Zn3 Cd1 S4,1.7168,3.2052,1.4884,jarvis_3d,jarvis,high,mp-981379,3D
JVASP-37662,Pr1 Ho3,0.0042,0.0262,0.022000000000000002,jarvis_3d,jarvis,high,mp-981546,3D
JVASP-37663,Pr1 H3,0.0209,1.0411,1.0202,jarvis_3d,jarvis,high,mp-981547,3D
JVASP-37693,Ge2 O3,0.8672,2.3083,1.4411,jarvis_3d,jarvis,high,mp-982048,3D
JVASP-37695,Pr1 Ho3,0.0017,0.002,0.00030000000000000014,jarvis_3d,jarvis,high,mp-982065,3D
JVASP-37714,Na1 Cu3,0.0029,0.0148,0.0119,jarvis_3d,jarvis,high,mp-982381,3D
JVASP-37715,Tb6 H18,0.0502,1.2797,1.2295,jarvis_3d,jarvis,high,mp-982384,3D
JVASP-37727,Tb1 Sc1,0.003,0.0177,0.014700000000000001,jarvis_3d,jarvis,high,mp-982596,3D
JVASP-37733,Na3 Mg1,0.001,0.0016,0.0006000000000000001,jarvis_3d,jarvis,high,mp-982637,3D
JVASP-37735,K3 Ho1,0.0064,0.0227,0.016300000000000002,jarvis_3d,jarvis,high,mp-982663,3D
JVASP-37754,Na3 Pt1,0.0105,0.0142,0.0037,jarvis_3d,jarvis,high,mp-982871,3D
JVASP-37764,Na6 Dy2 Cl12,5.3593,6.9675,1.6082,jarvis_3d,jarvis,high,mp-982980,3D
JVASP-37766,Hf1 H3,0.0009,0.0016,0.0007000000000000001,jarvis_3d,jarvis,high,mp-982982,3D
JVASP-37770,Hf1 Mg1 Au2,0.0451,0.0626,0.0175,jarvis_3d,jarvis,high,mp-983123,3D
JVASP-37782,K2 H8 O4 F2,5.3323,8.8483,3.516,jarvis_3d,jarvis,high,mp-983327,3D
JVASP-37783,Hf1 Al1 Fe2,0.0205,0.0267,0.006200000000000001,jarvis_3d,jarvis,high,mp-983358,3D
JVASP-37804,Sm6 Si2,0.0047,0.0273,0.022600000000000002,jarvis_3d,jarvis,high,mp-983479,3D
JVASP-37831,Ca2 Ag1 Bi1,0.0158,0.0539,0.0381,jarvis_3d,jarvis,high,mp-983598,3D
JVASP-37879,Ca6 Sn2 H4,0.0779,0.4681,0.3902,jarvis_3d,jarvis,high,mp-984605,3D
JVASP-37883,Ca1 B1 O3,0.0375,0.0482,0.010700000000000001,jarvis_3d,jarvis,high,mp-984628,3D
JVASP-37897,Er1 Ru3,0.0017,0.0045,0.0027999999999999995,jarvis_3d,jarvis,high,mp-984705,3D
JVASP-37905,B2 As2,1.361,1.8453,0.48429999999999995,jarvis_3d,jarvis,high,mp-984718,3D
JVASP-37910,Dy1 Al1 O3,3.1657,4.4967,1.3309999999999995,jarvis_3d,jarvis,high,mp-984723,3D
JVASP-37915,B2 C2,0.0048,0.0092,0.0044,jarvis_3d,jarvis,high,mp-984728,3D
JVASP-37916,Ba1 Sr3 O4,2.5091,4.0178,1.5087000000000002,jarvis_3d,jarvis,high,mp-984729,3D
JVASP-37925,Ca2 B4 H16,5.1063,6.6389,1.5325999999999995,jarvis_3d,jarvis,high,mp-984766,3D
JVASP-37944,Dy1 Al8 Cr4,0.0011,0.0049,0.0037999999999999996,jarvis_3d,jarvis,high,mp-985207,3D
JVASP-37958,Al4 H12 O12,6.1648,7.7598,1.5950000000000006,jarvis_3d,jarvis,high,mp-985293,3D
JVASP-37963,Ag3 N1,0.0054,0.0209,0.015499999999999998,jarvis_3d,jarvis,high,mp-985299,3D
JVASP-37999,Na3 P1 S4,2.5076,3.5795,1.0718999999999999,jarvis_3d,jarvis,high,mp-985584,3D
JVASP-38001,Na3 Br1 O1,2.1309,3.9988,1.8679000000000001,jarvis_3d,jarvis,high,mp-985586,3D
JVASP-38026,Sc2 O2 F2,4.3423,5.2649,0.9226000000000001,jarvis_3d,jarvis,high,mp-989178,3D
JVASP-38028,Sb2 O2 F2,1.9542,3.5632,1.6090000000000002,jarvis_3d,jarvis,high,mp-989191,3D
JVASP-38029,Sn2 Cl2 F2,2.9192,3.5562,0.637,jarvis_3d,jarvis,high,mp-989192,3D
JVASP-38030,Sn2 Br2 F2,2.2806,2.8886,0.6079999999999997,jarvis_3d,jarvis,high,mp-989193,3D
JVASP-38031,Sc2 Cl2 O2,3.824,4.2734,0.4493999999999998,jarvis_3d,jarvis,high,mp-989195,3D
JVASP-38033,Ge2 Cl2 F2,2.7918,3.5098,0.718,jarvis_3d,jarvis,high,mp-989197,3D
JVASP-38036,Rb2 Na1 Ga1 F6,6.3265,9.1548,2.8282999999999996,jarvis_3d,jarvis,high,mp-989400,3D
JVASP-38043,Y2 W2 N6,1.6472,2.1238,0.47660000000000013,jarvis_3d,jarvis,high,mp-989407,3D
JVASP-38069,Rb2 Tl1 In1 F6,3.6738,4.9303,1.2565,jarvis_3d,jarvis,high,mp-989532,3D
JVASP-38070,Na1 Tl2 In1 F6,4.5872,5.5811,0.9939,jarvis_3d,jarvis,high,mp-989533,3D
JVASP-38082,Rb2 Na1 Sb1 Cl6,3.1464,3.8794,0.7330000000000001,jarvis_3d,jarvis,high,mp-989545,3D
JVASP-38084,Rb2 Na1 In1 Cl6,3.0928,4.9494,1.8565999999999998,jarvis_3d,jarvis,high,mp-989547,3D