material_id,formula,pbe_bandgap,hse_bandgap,bandgap_correction,dataset,data_source,confidence,mpid,dimensionality
JVASP-8218,Hf2 S6,1.1834,1.9271,0.7437,jarvis_3d,jarvis,high,mp-9922,3D
JVASP-8219,Ca4 Sb2,0.0794,0.1404,0.061,jarvis_3d,jarvis,high,mp-9925,3D
JVASP-8227,La1 V1 Cr1 O6,0.002,0.0042,0.0021999999999999997,jarvis_3d,jarvis,high,mvc-10016,3D
JVASP-8236,Al1 Sn1 O3,0.0109,0.036,0.025099999999999997,jarvis_3d,jarvis,high,mvc-11052,3D
JVASP-8243,Bi2 O2 F2,2.8207,4.5261,1.7053999999999996,jarvis_3d,jarvis,high,mvc-11360,3D
JVASP-8253,Co2 O4,0.0054,0.0314,0.025999999999999995,jarvis_3d,jarvis,high,mvc-11564,3D
JVASP-8256,Ti1 O2,2.3311,2.6863,0.35519999999999996,jarvis_3d,jarvis,high,mvc-11600,3D
JVASP-8257,Sn1 O2,1.4722,3.031,1.5588000000000002,jarvis_3d,jarvis,high,mvc-11686,3D
JVASP-8261,Ca3 Fe2 N4,0.01,0.0109,0.0008999999999999998,jarvis_3d,jarvis,high,mvc-11768,3D
JVASP-8264,Mn1 O2,0.0044,0.0153,0.0109,jarvis_3d,jarvis,high,mvc-12823,3D
JVASP-8265,Co1 O2,0.0113,0.0148,0.0035000000000000014,jarvis_3d,jarvis,high,mvc-12841,3D
JVASP-8266,Ti1 O2,2.3553,2.6717,0.3163999999999998,jarvis_3d,jarvis,high,mvc-12939,3D
JVASP-8273,Ca1 Cu2 N2,0.0031,0.0184,0.0153,jarvis_3d,jarvis,high,mvc-13426,3D
JVASP-8275,Cu4 S2,0.0104,0.152,0.1416,jarvis_3d,jarvis,high,mvc-13442,3D
JVASP-8277,Mg1 V2 N2,0.0007,0.0025,0.0018,jarvis_3d,jarvis,high,mvc-13450,3D
JVASP-8280,Mg1 Bi1 F6,5.7477,7.5499,1.8022,jarvis_3d,jarvis,high,mvc-13470,3D
JVASP-8281,Ca1 Bi1 F6,5.6416,7.3516,1.71,jarvis_3d,jarvis,high,mvc-13472,3D
JVASP-8283,Bi1 F5,0.0084,0.0125,0.004100000000000001,jarvis_3d,jarvis,high,mvc-13496,3D
JVASP-8284,Al1 Cu1 F5,4.8472,7.3301,2.4829,jarvis_3d,jarvis,high,mvc-13497,3D
JVASP-8288,Bi2 N2,0.3571,0.8063,0.44920000000000004,jarvis_3d,jarvis,high,mvc-13729,3D
JVASP-8294,Ta1 F5,3.5481,4.6306,1.0825000000000005,jarvis_3d,jarvis,high,mvc-13836,3D
JVASP-8297,Al1 Sn1 F5,3.9399,4.8297,0.8897999999999997,jarvis_3d,jarvis,high,mvc-13902,3D
JVASP-8302,Sb1 F5,0.1711,1.4781,1.307,jarvis_3d,jarvis,high,mvc-13958,3D
JVASP-8305,Ca1 Sn1 F4,4.007,4.6165,0.6095000000000006,jarvis_3d,jarvis,high,mvc-14178,3D
JVASP-8311,Mg1 Ti1 F6,4.6667,4.9994,0.3327,jarvis_3d,jarvis,high,mvc-14678,3D
JVASP-8316,Mn1 Al1 F5,0.0032,0.3643,0.36110000000000003,jarvis_3d,jarvis,high,mvc-14725,3D
JVASP-8318,Y1 Cu1 F5,4.4969,6.4087,1.9117999999999995,jarvis_3d,jarvis,high,mvc-14755,3D
JVASP-8319,Ca1 Ti1 F6,4.7702,5.0496,0.27939999999999987,jarvis_3d,jarvis,high,mvc-14834,3D
JVASP-8320,Fe1 O2,0.0044,0.0048,0.0003999999999999993,jarvis_3d,jarvis,high,mvc-14925,3D
JVASP-8327,Y1 Ti1 F5,0.0165,0.0176,0.0011000000000000003,jarvis_3d,jarvis,high,mvc-15370,3D
JVASP-8329,Sb2 N2,1.0974,1.8275,0.7301,jarvis_3d,jarvis,high,mvc-15384,3D
JVASP-8338,Ca1 Sb1 F6,4.4288,5.5012,1.0724,jarvis_3d,jarvis,high,mvc-15694,3D
JVASP-8339,Te1 F6,4.2426,5.6283,1.3857,jarvis_3d,jarvis,high,mvc-15700,3D
JVASP-8344,Y1 Sn1 F5,3.1565,3.9984,0.8419000000000003,jarvis_3d,jarvis,high,mvc-15785,3D
JVASP-8358,Al1 Co1 F5,0.0059,0.3543,0.3484,jarvis_3d,jarvis,high,mvc-15886,3D
JVASP-8362,Y1 Cu1 O2,2.8763,2.8853,0.008999999999999897,jarvis_3d,jarvis,high,mvc-15946,3D
JVASP-8365,Ca2 Ni2 N2,0.0091,0.0098,0.0006999999999999992,jarvis_3d,jarvis,high,mvc-16068,3D
JVASP-8366,Ca3 Sb1 N1,0.2121,0.3466,0.1345,jarvis_3d,jarvis,high,mvc-16070,3D
JVASP-8367,Ca3 Bi1 N1,0.1618,0.9501,0.7883,jarvis_3d,jarvis,high,mvc-16073,3D
JVASP-8368,Sr2 Zn1 Cu2 S2 O2,1.0055,2.1672,1.1616999999999997,jarvis_3d,jarvis,high,mvc-16081,3D
JVASP-8370,Al2 Cu2 S4,1.8962,2.5454,0.6491999999999998,jarvis_3d,jarvis,high,mvc-16090,3D
JVASP-8371,Zn1 Cu2 Ge1 S4,0.3862,1.031,0.6447999999999999,jarvis_3d,jarvis,high,mvc-16091,3D
JVASP-8377,Li1 Mn2 O4,0.0058,0.0059,0.00010000000000000026,jarvis_3d,jarvis,high,mvc-16811,3D
JVASP-8383,Y1 W1 F5,0.1841,0.9076,0.7234999999999999,jarvis_3d,jarvis,high,mvc-3451,3D
JVASP-8385,Y1 Co1 F5,0.0213,0.0316,0.010300000000000004,jarvis_3d,jarvis,high,mvc-3515,3D
JVASP-8386,Y1 V1 F5,0.243,0.2498,0.0068000000000000005,jarvis_3d,jarvis,high,mvc-3524,3D
JVASP-8387,Te1 W1 O6,1.3948,2.1555,0.7606999999999999,jarvis_3d,jarvis,high,mvc-5676,3D
JVASP-8397,Sn2 S4,1.5367,2.7992,1.2625,jarvis_3d,jarvis,high,mvc-7051,3D
JVASP-8432,Se4 Ag2 In2,0.6772,1.0016,0.3244,jarvis_3d,jarvis,high,mp-20554,3D
JVASP-8435,Co3 Sn1 C1,0.018,0.0451,0.027100000000000003,jarvis_3d,jarvis,high,mp-20679,3D
JVASP-8448,Nd3 Pb1 C1,0.0185,0.0777,0.0592,jarvis_3d,jarvis,high,mp-20808,3D
JVASP-8454,Pb4 O4,2.2918,3.3896,1.0978000000000003,jarvis_3d,jarvis,high,mp-20878,3D
JVASP-8456,Ge3 O6,0.9727,2.2028,1.2300999999999997,jarvis_3d,jarvis,high,mp-20893,3D
JVASP-8457,Sb4 Ru2,0.0083,0.0111,0.0028000000000000004,jarvis_3d,jarvis,high,mp-20928,3D
JVASP-8458,O2 Cu1 In1,0.3844,0.5934,0.20900000000000002,jarvis_3d,jarvis,high,mp-20930,3D
JVASP-8464,Rb1 Pb1 F3,3.4984,4.6252,1.1268000000000002,jarvis_3d,jarvis,high,mp-21043,3D
JVASP-8490,In4 Se4,0.8944,1.5367,0.6423,jarvis_3d,jarvis,high,mp-21405,3D
JVASP-8494,Ni1 Sn1 U1,0.0051,0.0089,0.0037999999999999996,jarvis_3d,jarvis,high,mp-21425,3D
JVASP-8503,Tm3 Sn1 C1,0.0395,0.0683,0.0288,jarvis_3d,jarvis,high,mp-21888,3D
JVASP-8506,Se2 Pb2,0.6903,1.5511,0.8607999999999999,jarvis_3d,jarvis,high,mp-22009,3D
JVASP-8514,Si2 Se4,1.6071,2.5077,0.9005999999999998,jarvis_3d,jarvis,high,mp-22142,3D
JVASP-8518,Se4 In2 Tl2,0.9733,1.5472,0.5738999999999999,jarvis_3d,jarvis,high,mp-22232,3D
JVASP-8520,Zn1 In2 S4,0.5177,0.9293,0.41159999999999997,jarvis_3d,jarvis,high,mp-22253,3D
JVASP-8525,Al4 Sr2,0.0003,0.0006,0.0003,jarvis_3d,jarvis,high,mp-22318,3D
JVASP-8528,Nb1 Ru3 C1,0.0087,0.0162,0.0075,jarvis_3d,jarvis,high,mp-22351,3D
JVASP-8532,Ag2 In2 Te4,0.6646,0.9722,0.3076,jarvis_3d,jarvis,high,mp-22386,3D
JVASP-8537,Hf1 Pb1 O3,2.5393,3.5811,1.0418000000000003,jarvis_3d,jarvis,high,mp-22535,3D
JVASP-8539,S2 In1 Tl1,0.734,1.4126,0.6786000000000001,jarvis_3d,jarvis,high,mp-22566,3D
JVASP-8551,Ni1 Sn1 Th1,0.0449,0.3721,0.3272,jarvis_3d,jarvis,high,mp-22786,3D
JVASP-8552,In2 Te4 Tl2,0.0474,0.9883,0.9409,jarvis_3d,jarvis,high,mp-22791,3D
JVASP-8554,Cu2 Se4 In2,0.6206,0.6442,0.023599999999999954,jarvis_3d,jarvis,high,mp-22811,3D
JVASP-8555,Na1 Cl1,4.3432,7.5038,3.1605999999999996,jarvis_3d,jarvis,high,mp-22851,3D
JVASP-8556,Cr2 Cl4,0.1795,0.4551,0.2756,jarvis_3d,jarvis,high,mp-22857,3D
JVASP-8557,I2 Tl2,2.1897,2.8741,0.6843999999999997,jarvis_3d,jarvis,high,mp-22858,3D
JVASP-8559,Tl1 Br1,2.0225,2.833,0.8105000000000002,jarvis_3d,jarvis,high,mp-22875,3D
JVASP-8561,Ag2 I2,1.2844,2.8488,1.5644000000000002,jarvis_3d,jarvis,high,mp-22894,3D
JVASP-8562,Cu1 I1,1.2498,2.2033,0.9535,jarvis_3d,jarvis,high,mp-22895,3D
JVASP-8563,Li1 I1,4.582,5.3726,0.7906000000000004,jarvis_3d,jarvis,high,mp-22899,3D
JVASP-8564,K1 I1,3.6314,5.6784,2.0469999999999997,jarvis_3d,jarvis,high,mp-22901,3D
JVASP-8566,Ag1 I1,0.3885,2.0786,1.6900999999999997,jarvis_3d,jarvis,high,mp-22919,3D
JVASP-8569,Ga1 Bi1 O3,1.3525,2.2777,0.9251999999999998,jarvis_3d,jarvis,high,mp-22979,3D
JVASP-8571,S1 Ag3 I1,0.6611,1.5761,0.915,jarvis_3d,jarvis,high,mp-22995,3D
JVASP-8574,Bi2 O2 F2,3.258,5.0688,1.8108000000000004,jarvis_3d,jarvis,high,mp-23074,3D
JVASP-8575,Al1 Bi1 O3,2.0586,2.8487,0.7900999999999998,jarvis_3d,jarvis,high,mp-23080,3D
JVASP-8576,O2 Cl4 K2 Os1,1.6054,2.038,0.4325999999999999,jarvis_3d,jarvis,high,mp-23097,3D
JVASP-8578,Tl1 Cl1,2.2081,3.1138,0.9057,jarvis_3d,jarvis,high,mp-23167,3D
JVASP-8579,I4 Hg2,1.7445,2.593,0.8485,jarvis_3d,jarvis,high,mp-23173,3D
JVASP-8580,Tl1 I1,2.0399,2.7173,0.6774,jarvis_3d,jarvis,high,mp-23197,3D
JVASP-8581,Li3 Bi1,0.1943,0.893,0.6987,jarvis_3d,jarvis,high,mp-23222,3D
JVASP-8582,Cu2 Br2,0.2191,1.1372,0.9181,jarvis_3d,jarvis,high,mp-23227,3D
JVASP-8583,Br1 Ag1,1.0021,2.5156,1.5135,jarvis_3d,jarvis,high,mp-23231,3D
JVASP-8586,K1 Cl1,5.3479,8.5163,3.168399999999999,jarvis_3d,jarvis,high,mp-23289,3D
JVASP-8587,Cl6 Tb2,3.581,4.8299,1.2489000000000003,jarvis_3d,jarvis,high,mp-23293,3D
JVASP-8588,Rb1 Cl1,5.3357,7.5821,2.2463999999999995,jarvis_3d,jarvis,high,mp-23299,3D
JVASP-8589,F3 Bi1,4.2451,5.5209,1.2758000000000003,jarvis_3d,jarvis,high,mp-23301,3D
JVASP-8590,Rb1 I1,3.7483,5.0517,1.3034000000000003,jarvis_3d,jarvis,high,mp-23302,3D
JVASP-8591,Rb1 Br1,4.4097,6.2229,1.8132000000000001,jarvis_3d,jarvis,high,mp-23303,3D
JVASP-8592,Br6 Rb2 Te1,1.9246,2.3931,0.4684999999999999,jarvis_3d,jarvis,high,mp-23383,3D
JVASP-8594,Cl6 K2 Sn1,2.1673,3.7046,1.5373,jarvis_3d,jarvis,high,mp-23499,3D
JVASP-8595,K2 Br6 Te1,1.8937,2.3668,0.4731000000000001,jarvis_3d,jarvis,high,mp-23505,3D
JVASP-8596,Na1 Be1 H3,1.6673,3.1115,1.4442,jarvis_3d,jarvis,high,mp-23729,3D
JVASP-8599,Ga2 H2 O4,3.3154,5.0024,1.6869999999999998,jarvis_3d,jarvis,high,mp-23803,3D
JVASP-8600,H2 O2 Na2,3.1797,6.2949,3.1152,jarvis_3d,jarvis,high,mp-23891,3D
JVASP-8601,Na2 H2 O2,3.1955,6.3008,3.1052999999999997,jarvis_3d,jarvis,high,mp-23940,3D
JVASP-8602,Rb1 Ca1 H3,3.3448,4.9363,1.5915,jarvis_3d,jarvis,high,mp-23949,3D
JVASP-8603,Cu2 H2,0.044,1.0724,1.0284,jarvis_3d,jarvis,high,mp-24093,3D
JVASP-8605,H1 Li1 O3 Nd2,2.0537,3.3216,1.2679,jarvis_3d,jarvis,high,mp-24150,3D
JVASP-8607,K2 H4 N2,2.3828,4.7043,2.3215,jarvis_3d,jarvis,high,mp-24428,3D
JVASP-8608,H4 Ca1 Rb2,3.3686,4.9306,1.5620000000000003,jarvis_3d,jarvis,high,mp-24517,3D
JVASP-8621,H1 O2 Cr1,0.0094,0.0124,0.002999999999999999,jarvis_3d,jarvis,high,mp-24927,3D
JVASP-8626,Sr1 Fe1 O2,0.003,0.0073,0.0043,jarvis_3d,jarvis,high,mp-24964,3D
JVASP-8633,V1 Pb1 O3,0.0044,0.0083,0.0039,jarvis_3d,jarvis,high,mp-25119,3D
JVASP-8651,K2 Pt1 Br4,1.606,2.0036,0.39759999999999995,jarvis_3d,jarvis,high,mp-27243,3D
JVASP-8655,K1 Au1 O2,1.1812,1.7275,0.5463,jarvis_3d,jarvis,high,mp-27418,3D
JVASP-8659,Sn1 Rb2 I6,0.2511,0.4894,0.2383,jarvis_3d,jarvis,high,mp-27635,3D
JVASP-8664,O4 S2,2.6464,4.2377,1.5913000000000004,jarvis_3d,jarvis,high,mp-27726,3D
JVASP-8665,I2 Cl6,1.5168,3.1484,1.6316000000000002,jarvis_3d,jarvis,high,mp-27729,3D
JVASP-8666,Tl2 Ag2 I4,1.8332,2.4325,0.5993000000000002,jarvis_3d,jarvis,high,mp-27801,3D
JVASP-8667,Tb2 Cl2,0.0693,0.1226,0.0533,jarvis_3d,jarvis,high,mp-27923,3D
JVASP-8668,C1 I4,0.9408,1.618,0.6772000000000001,jarvis_3d,jarvis,high,mp-27962,3D
JVASP-8670,Sb2 Te2 I2,0.8908,1.2528,0.3619999999999999,jarvis_3d,jarvis,high,mp-28051,3D
JVASP-8675,Pt1 S2 Cl6,1.7122,2.3845,0.6723000000000001,jarvis_3d,jarvis,high,mp-28722,3D
JVASP-8678,Ba1 Pd2 P4,0.0148,0.059,0.044199999999999996,jarvis_3d,jarvis,high,mp-28895,3D
JVASP-8682,Au1 C1 N1,1.0897,2.0266,0.9369000000000003,jarvis_3d,jarvis,high,mp-29196,3D
JVASP-8684,Mg2 Al2 Se5,1.3067,2.2839,0.9772000000000001,jarvis_3d,jarvis,high,mp-29624,3D
JVASP-8686,Ag1 Bi1 S2,0.11,1.1287,1.0187,jarvis_3d,jarvis,high,mp-29678,3D
JVASP-8687,Ni1 Mg1 Bi1,0.0201,0.0375,0.0174,jarvis_3d,jarvis,high,mp-29733,3D
JVASP-8688,O3 Cl1 Tl1,4.6064,5.2054,0.5990000000000002,jarvis_3d,jarvis,high,mp-29738,3D
JVASP-8690,Mg2 C4,2.7497,3.3948,0.6451000000000002,jarvis_3d,jarvis,high,mp-29771,3D
JVASP-8691,O3 Br1 Tl1,3.3673,3.5145,0.14719999999999978,jarvis_3d,jarvis,high,mp-29798,3D
JVASP-8693,Li1 Au1 C2,1.6624,2.1041,0.44169999999999976,jarvis_3d,jarvis,high,mp-29868,3D
JVASP-8694,Rb2 Cd1 Cl4,3.2076,5.0716,1.8640000000000003,jarvis_3d,jarvis,high,mp-29873,3D
JVASP-8695,Na1 Li5 N2,2.9962,3.243,0.2467999999999999,jarvis_3d,jarvis,high,mp-29929,3D
JVASP-8696,Na5 Li1 N2,0.3141,0.6322,0.3181,jarvis_3d,jarvis,high,mp-29930,3D
JVASP-8698,F2 Kr1,2.7137,4.1532,1.4395000000000002,jarvis_3d,jarvis,high,mp-30009,3D
JVASP-8701,Rb3 Br1 O1,0.3402,2.203,1.8627999999999998,jarvis_3d,jarvis,high,mp-30055,3D
JVASP-8703,B2 C4 N2,2.458,3.3121,0.8540999999999999,jarvis_3d,jarvis,high,mp-30148,3D
JVASP-8704,C1 O5 Bi2,1.231,2.7527,1.5216999999999998,jarvis_3d,jarvis,high,mp-30200,3D
JVASP-8705,Mg2 H2 O3,4.0685,6.2221,2.1536,jarvis_3d,jarvis,high,mp-30244,3D
JVASP-8706,Y2 Au2 O4,2.7637,3.7211,0.9573999999999998,jarvis_3d,jarvis,high,mp-30251,3D
JVASP-8714,Ni1 Y1 Bi1,0.0406,0.1225,0.0819,jarvis_3d,jarvis,high,mp-30460,3D
JVASP-8718,C2 N2 Th2,1.2789,1.8242,0.5453000000000001,jarvis_3d,jarvis,high,mp-30521,3D
JVASP-8729,Sc1 Ru1,0.0022,0.0052,0.0029999999999999996,jarvis_3d,jarvis,high,mp-30867,3D
JVASP-8732,Ho6 Co1 Bi2,0.0029,0.0101,0.0072,jarvis_3d,jarvis,high,mp-30922,3D
JVASP-8733,O4 Na2 Cl2,2.554,3.9761,1.4221000000000004,jarvis_3d,jarvis,high,mp-30965,3D
JVASP-8736,Er3 In1 N1,0.0563,0.0729,0.016600000000000004,jarvis_3d,jarvis,high,mp-31058,3D
JVASP-8739,Ba2 Zn2 Sn2,0.0148,0.0391,0.024300000000000002,jarvis_3d,jarvis,high,mp-31148,3D
JVASP-8742,Al1 Fe2 Ni1,0.0151,0.0229,0.0078,jarvis_3d,jarvis,high,mp-31186,3D
JVASP-8744,O6 Sb2 U1,1.4219,1.5663,0.14440000000000008,jarvis_3d,jarvis,high,mp-31256,3D
JVASP-8748,O4 Cl2 K2,2.226,3.5739,1.3479,jarvis_3d,jarvis,high,mp-31368,3D
JVASP-8750,V1 Ru1 Sb1,0.2103,0.259,0.04870000000000002,jarvis_3d,jarvis,high,mp-31455,3D
JVASP-8755,Li1 S1,0.0229,0.0383,0.0154,jarvis_3d,jarvis,high,mp-32641,3D
JVASP-8756,Ag4 S2,1.1008,1.9403,0.8394999999999999,jarvis_3d,jarvis,high,mp-32669,3D
JVASP-8757,H4 Br4,4.6572,6.0823,1.4251000000000005,jarvis_3d,jarvis,high,mp-32684,3D
JVASP-8761,Ag6 S3,0.2777,1.0831,0.8053999999999999,jarvis_3d,jarvis,high,mp-32868,3D
JVASP-8763,Ag4 S2,1.0954,1.9355,0.8401000000000001,jarvis_3d,jarvis,high,mp-32884,3D
JVASP-8765,Rb3 Sb1,0.6063,1.398,0.7917,jarvis_3d,jarvis,high,mp-33018,3D
JVASP-8766,Nd2 O3,0.9162,1.4102,0.4939999999999999,jarvis_3d,jarvis,high,mp-33029,3D
JVASP-8768,F4 S1,1.4984,1.8703,0.3719000000000001,jarvis_3d,jarvis,high,mp-33107,3D
JVASP-8770,Cu1 I4,0.0134,0.2466,0.23320000000000002,jarvis_3d,jarvis,high,mp-33218,3D
JVASP-8771,O4 Rb2,0.0049,0.0163,0.011399999999999999,jarvis_3d,jarvis,high,mp-33234,3D
JVASP-8777,Ca4 F2 N2,1.9579,3.1455,1.1876000000000002,jarvis_3d,jarvis,high,mp-33588,3D
JVASP-8781,Bi1 Te1 Br1,1.2715,1.8995,0.6279999999999999,jarvis_3d,jarvis,high,mp-33723,3D
JVASP-8784,Ga2 Sr1 Te4,0.2999,0.9245,0.6246,jarvis_3d,jarvis,high,mp-33880,3D
JVASP-8785,Ag2 Er2 Se4,0.2989,1.1454,0.8465,jarvis_3d,jarvis,high,mp-33882,3D
JVASP-8788,Ba1 In2 Te4,1.0183,1.4918,0.47350000000000003,jarvis_3d,jarvis,high,mp-33985,3D
JVASP-8789,Ta2 O4 F2,2.1205,3.3068,1.1863000000000001,jarvis_3d,jarvis,high,mp-33997,3D
JVASP-8793,K4 Na2 As2,0.4198,1.704,1.2842,jarvis_3d,jarvis,high,mp-34127,3D
JVASP-8794,Mn1 O2,0.0027,0.0031,0.00039999999999999975,jarvis_3d,jarvis,high,mp-34134,3D
JVASP-8795,In2 Se4 Zn1,0.8091,2.098,1.2889,jarvis_3d,jarvis,high,mp-34169,3D
JVASP-8800,H4 N1 Cl1,5.2881,7.0273,1.7392000000000003,jarvis_3d,jarvis,high,mp-34337,3D
JVASP-8801,Ho1 Ta1 O4,2.4981,3.7276,1.2294999999999998,jarvis_3d,jarvis,high,mp-34380,3D
JVASP-8802,H4 I1 N1,3.8431,5.319,1.4758999999999998,jarvis_3d,jarvis,high,mp-34381,3D
JVASP-8803,Ag1 F6 P1,3.0471,5.1689,2.1218,jarvis_3d,jarvis,high,mp-34418,3D
JVASP-8804,Ag3 Au1 S2,1.7019,2.1557,0.4538,jarvis_3d,jarvis,high,mp-34460,3D
JVASP-8805,H1 Li2 N1,3.4629,3.9577,0.49480000000000013,jarvis_3d,jarvis,high,mp-34465,3D
JVASP-8806,Ga2 S4 Zn1,1.9013,3.3804,1.4790999999999999,jarvis_3d,jarvis,high,mp-34467,3D
JVASP-8808,Li2 In2 Se4,0.0248,0.9985,0.9737,jarvis_3d,jarvis,high,mp-34489,3D
JVASP-8810,O4 Ti2,2.0237,2.4746,0.4509000000000003,jarvis_3d,jarvis,high,mp-34688,3D
JVASP-8811,Cd1 Ho2 S4,0.0258,1.7578,1.732,jarvis_3d,jarvis,high,mp-34735,3D
JVASP-8812,K1 N1 O2,2.5198,3.8576,1.3378,jarvis_3d,jarvis,high,mp-34857,3D
JVASP-8813,Ge2 Mg2 P4,1.4872,2.2192,0.7319999999999998,jarvis_3d,jarvis,high,mp-34903,3D
JVASP-8814,Ca1 H1 N1,2.5034,3.7233,1.2199,jarvis_3d,jarvis,high,mp-34932,3D
JVASP-8816,Ag3 Au1 S2,1.2349,1.9218,0.6868999999999998,jarvis_3d,jarvis,high,mp-34982,3D
JVASP-8818,H5 Rh1 Sr2,0.1536,0.9598,0.8062,jarvis_3d,jarvis,high,mp-35152,3D
JVASP-8819,F2 Nb2 O4,1.6408,2.2143,0.5735000000000001,jarvis_3d,jarvis,high,mp-35171,3D
JVASP-8822,P2 H2 N4,4.7133,6.1326,1.4192999999999998,jarvis_3d,jarvis,high,mp-35220,3D
JVASP-8827,Li3 O4 Ta1,1.57,2.9587,1.3886999999999998,jarvis_3d,jarvis,high,mp-35417,3D
JVASP-8828,Ge1 Se4 Zn2,1.3261,2.3449,1.0188,jarvis_3d,jarvis,high,mp-35539,3D
JVASP-20251,Ni4 Er2,0.0225,0.0276,0.0051,jarvis_3d,jarvis,high,mp-1939,3D
JVASP-20287,Hf1 Co1,0.002,0.0247,0.022699999999999998,jarvis_3d,jarvis,high,mp-2027,3D
JVASP-20310,F6 Al2,8.2402,11.0135,2.7733000000000008,jarvis_3d,jarvis,high,mp-468,3D
JVASP-20331,Sb8 Au4,0.0253,0.0399,0.014599999999999998,jarvis_3d,jarvis,high,mp-738,3D
JVASP-20389,Fe1 Co1,0.0265,0.0421,0.0156,jarvis_3d,jarvis,high,mp-2090,3D
JVASP-20397,Mn4 Zr2,0.0045,0.0051,0.0006000000000000007,jarvis_3d,jarvis,high,mp-2116,3D
JVASP-20882,K1 Mg1 F3,7.6813,10.6421,2.960799999999999,jarvis_3d,jarvis,high,mp-3448,3D
JVASP-21093,O8 P2 Tm2,6.3518,8.243,1.8912000000000004,jarvis_3d,jarvis,high,mp-5884,3D
JVASP-21124,B4 O12 Al3 Y1,5.4817,6.402,0.9203000000000001,jarvis_3d,jarvis,high,mp-6062,3D
JVASP-21387,F6 Na1 Al1 K2,7.4898,10.8949,3.4051,jarvis_3d,jarvis,high,mp-6586,3D
JVASP-22421,K2 Al1 F5,6.616,11.4243,4.808300000000001,jarvis_3d,jarvis,high,mp-9486,3D
JVASP-22742,Al12 Re2,0.0062,0.0069,0.0007000000000000001,jarvis_3d,jarvis,high,mp-16528,3D
JVASP-22775,Al12 Tc1,0.0097,0.0218,0.0121,jarvis_3d,jarvis,high,mp-16719,3D
JVASP-22776,Tm8 Al8,0.0009,0.0011,0.0002000000000000001,jarvis_3d,jarvis,high,mp-16721,3D
JVASP-22801,Rb12 P4 S16,2.8974,4.0561,1.1586999999999996,jarvis_3d,jarvis,high,mp-16863,3D
JVASP-22878,K12 Nb4 Se16,1.8126,2.1243,0.31169999999999987,jarvis_3d,jarvis,high,mp-17283,3D
JVASP-22880,Na6 Ge3 F18,5.8881,9.1335,3.2454,jarvis_3d,jarvis,high,mp-17297,3D
JVASP-22884,Tb8 Si8 O28,4.8261,6.6034,1.7772999999999994,jarvis_3d,jarvis,high,mp-17308,3D
JVASP-22885,Mg6 Be2 Al16 O32,5.6844,7.1845,1.5000999999999998,jarvis_3d,jarvis,high,mp-17313,3D
JVASP-22889,O24 Na6 P6 In4,3.5327,5.7304,2.1977,jarvis_3d,jarvis,high,mp-17349,3D
JVASP-22891,K8 Er4 F20,7.2563,10.4012,3.144899999999999,jarvis_3d,jarvis,high,mp-17371,3D
JVASP-22894,Rb4 Si6 Sn2 O18,4.134,5.8982,1.7641999999999998,jarvis_3d,jarvis,high,mp-17382,3D
JVASP-22901,Sm4 Sn4 F28,5.0676,7.2727,2.2051000000000007,jarvis_3d,jarvis,high,mp-17418,3D
JVASP-22904,K8 Sm4 F20,7.1381,9.6877,2.5496,jarvis_3d,jarvis,high,mp-17434,3D
JVASP-22907,Pr4 Pt4 F28,2.4671,2.5836,0.11650000000000027,jarvis_3d,jarvis,high,mp-17446,3D
JVASP-22913,O18 Ge6 Sr6,3.4246,5.5408,2.1162,jarvis_3d,jarvis,high,mp-17464,3D
JVASP-22919,Mg8 Ta4 O18,4.2638,5.6716,1.4078,jarvis_3d,jarvis,high,mp-17481,3D
JVASP-22926,S20 Cd6 Ba8 Tb4,1.8615,2.69,0.8285,jarvis_3d,jarvis,high,mp-17513,3D
JVASP-22929,Y8 Ti4 O20,3.2991,3.5826,0.28349999999999964,jarvis_3d,jarvis,high,mp-17559,3D
JVASP-22930,B6 O18 Sc2 Sr6,4.6906,4.8871,0.19650000000000034,jarvis_3d,jarvis,high,mp-17562,3D
JVASP-22934,Sm4 Pt4 F28,2.4261,2.6017,0.1756000000000002,jarvis_3d,jarvis,high,mp-17569,3D
JVASP-22941,Rb12 Sb4 Se16,1.2414,2.2422,1.0008,jarvis_3d,jarvis,high,mp-17638,3D
JVASP-22944,S16 K8 Ga8,2.6416,4.327,1.6854,jarvis_3d,jarvis,high,mp-17650,3D
JVASP-22945,Ho4 Pt4 F28,2.3621,2.5542,0.19209999999999994,jarvis_3d,jarvis,high,mp-17651,3D
JVASP-22950,Lu12 O8 F20,5.8981,8.6026,2.7045000000000003,jarvis_3d,jarvis,high,mp-17673,3D
JVASP-22958,K4 Sm4 F16,7.5503,9.3509,1.8005999999999993,jarvis_3d,jarvis,high,mp-17697,3D
JVASP-22960,Tm8 Si4 O20,4.8918,6.8804,1.9886,jarvis_3d,jarvis,high,mp-17704,3D
JVASP-22967,Pr8 Si4 Te4 O16,2.1458,2.6487,0.5028999999999999,jarvis_3d,jarvis,high,mp-17750,3D
JVASP-22972,O24 Na2 Mg8 As6,3.4843,5.1542,1.6699000000000002,jarvis_3d,jarvis,high,mp-17771,3D
JVASP-22974,Sr10 As6 O24 F2,4.1721,6.0101,1.838,jarvis_3d,jarvis,high,mp-17777,3D
JVASP-22976,Ca4 Ti4 Ge4 O20,2.7833,3.2425,0.45920000000000005,jarvis_3d,jarvis,high,mp-17784,3D
JVASP-22977,S16 K4 Ge4 Hg6,1.2652,2.3442,1.0789999999999997,jarvis_3d,jarvis,high,mp-17792,3D
JVASP-23033,Ba4 Ca4 Al4 F28,7.4425,9.6064,2.163900000000001,jarvis_3d,jarvis,high,mp-18065,3D
JVASP-23037,Na12 Ge4 Se14,1.5506,2.6546,1.1039999999999999,jarvis_3d,jarvis,high,mp-18100,3D
JVASP-23208,O6 Mo1 Ba2 Sm1,0.0024,0.0052,0.0028,jarvis_3d,jarvis,high,mp-19258,3D
JVASP-23231,O6 Ti2 Co2,0.0052,0.0092,0.004,jarvis_3d,jarvis,high,mp-19424,3D
JVASP-23334,U4 Si4 Ir4,0.001,0.0056,0.0046,jarvis_3d,jarvis,high,mp-19806,3D