material_id,formula,pbe_bandgap,hse_bandgap,bandgap_correction,dataset,data_source,confidence,mpid,dimensionality
JVASP-15141,Lu1 B1 Pd3,0.0035,0.0051,0.0016000000000000003,jarvis_3d,jarvis,high,mp-3105,3D
JVASP-15148,Si2 Dy1 Pt2,0.0057,0.0132,0.0075,jarvis_3d,jarvis,high,mp-3148,3D
JVASP-15159,Si2 Fe2 Ho1,0.0039,0.0066,0.0027,jarvis_3d,jarvis,high,mp-3191,3D
JVASP-15161,Tb3 Al3 Pd3,0.0038,0.0101,0.0063,jarvis_3d,jarvis,high,mp-3197,3D
JVASP-15167,U2 Se2 O2,0.0032,0.0054,0.0022,jarvis_3d,jarvis,high,mp-3217,3D
JVASP-15176,Ti3 Al1 C1,0.0095,0.0228,0.013300000000000001,jarvis_3d,jarvis,high,mp-3271,3D
JVASP-15183,Si2 Co2 Tb1,0.0003,0.0021,0.0018,jarvis_3d,jarvis,high,mp-3292,3D
JVASP-15194,P2 Sr1 Pd2,0.0008,0.0021,0.0013,jarvis_3d,jarvis,high,mp-3385,3D
JVASP-15199,Si2 Pt2 U1,0.0009,0.0011,0.0002000000000000001,jarvis_3d,jarvis,high,mp-3406,3D
JVASP-15207,Cr2 Ge2 Th1,0.002,0.0034,0.0013999999999999998,jarvis_3d,jarvis,high,mp-3447,3D
JVASP-15211,Si1 Fe1 Ru2,0.0054,0.0076,0.0021999999999999997,jarvis_3d,jarvis,high,mp-3464,3D
JVASP-15215,Mg1 As1 Ag1,0.0231,0.0634,0.0403,jarvis_3d,jarvis,high,mp-3477,3D
JVASP-15218,S4 Fe2 Cu2,0.0014,0.0021,0.0006999999999999999,jarvis_3d,jarvis,high,mp-3497,3D
JVASP-15230,K2 Te2 Au2,0.4196,0.7792,0.35960000000000003,jarvis_3d,jarvis,high,mp-3553,3D
JVASP-15232,Si2 Ru2 Ce1,0.0008,0.0014,0.0006,jarvis_3d,jarvis,high,mp-3566,3D
JVASP-15234,Nd2 P2 Pd2,0.0052,0.0258,0.0206,jarvis_3d,jarvis,high,mp-3570,3D
JVASP-15235,Al1 Mn1 Cu2,0.0052,0.0244,0.019200000000000002,jarvis_3d,jarvis,high,mp-3574,3D
JVASP-15237,Co2 Ga1 Hf1,0.0149,0.0859,0.07100000000000001,jarvis_3d,jarvis,high,mp-3576,3D
JVASP-15238,Ge2 Se2 U2,0.0004,0.0034,0.0029999999999999996,jarvis_3d,jarvis,high,mp-3579,3D
JVASP-15241,Si2 Sc1 Ni2,0.0056,0.0083,0.0027,jarvis_3d,jarvis,high,mp-3587,3D
JVASP-15246,Al1 Mn1 Co2,0.0031,0.0058,0.0026999999999999997,jarvis_3d,jarvis,high,mp-3623,3D
JVASP-15249,Si2 Rh2 Nd1,0.0017,0.0027,0.0010000000000000002,jarvis_3d,jarvis,high,mp-3651,3D
JVASP-15250,Si1 Ti1 Co2,0.0331,0.0502,0.017100000000000004,jarvis_3d,jarvis,high,mp-3657,3D
JVASP-15255,Sr1 Al1 Si1,0.0026,0.0077,0.0051,jarvis_3d,jarvis,high,mp-3698,3D
JVASP-15267,Sc1 Co2 Sn1,0.0561,0.184,0.1279,jarvis_3d,jarvis,high,mp-3791,3D
JVASP-15269,B2 Al1 Fe2,0.0002,0.004,0.0038,jarvis_3d,jarvis,high,mp-3805,3D
JVASP-15285,Al1 Co2 Zr1,0.016,0.0212,0.0052,jarvis_3d,jarvis,high,mp-3909,3D
JVASP-15288,Zr2 Si2 S2,0.0033,0.0071,0.0038000000000000004,jarvis_3d,jarvis,high,mp-3938,3D
JVASP-15289,Si2 Ni2 Sm1,0.0021,0.004,0.0019000000000000002,jarvis_3d,jarvis,high,mp-3939,3D
JVASP-15291,Al1 Ni2 Zr1,0.0258,0.0278,0.0019999999999999983,jarvis_3d,jarvis,high,mp-3944,3D
JVASP-15293,Si2 Er1 Os2,0.0003,0.0007,0.0004,jarvis_3d,jarvis,high,mp-3958,3D
JVASP-15298,Si2 Cu2 Sm1,0.0009,0.0042,0.0033,jarvis_3d,jarvis,high,mp-3997,3D
JVASP-15302,Si2 Cu2 Pr1,0.0107,0.0158,0.005100000000000002,jarvis_3d,jarvis,high,mp-4014,3D
JVASP-15304,C2 Ni1 Tm1,0.0059,0.0243,0.0184,jarvis_3d,jarvis,high,mp-4037,3D
JVASP-15307,Pd2 Sn1 Yb1,0.019,0.0207,0.0017000000000000001,jarvis_3d,jarvis,high,mp-4053,3D
JVASP-15311,B2 Co2 Sm1,0.0103,0.0164,0.006100000000000001,jarvis_3d,jarvis,high,mp-4073,3D
JVASP-15313,V1 Co1 Sb1,0.0029,0.0147,0.0118,jarvis_3d,jarvis,high,mp-4076,3D
JVASP-15320,As2 Ru2 Ba1,0.0001,0.0024,0.0023,jarvis_3d,jarvis,high,mp-4109,3D
JVASP-15321,Ca2 Cu2 As2,0.0268,0.3161,0.2893,jarvis_3d,jarvis,high,mp-4120,3D
JVASP-15326,Ca1 Mn2 Sb2,0.0077,0.0223,0.0146,jarvis_3d,jarvis,high,mp-4150,3D
JVASP-15347,Ca1 Co2 Ge2,0.0043,0.0068,0.0024999999999999996,jarvis_3d,jarvis,high,mp-4259,3D
JVASP-15348,Be1 B1 Al1,0.1451,0.3057,0.16060000000000002,jarvis_3d,jarvis,high,mp-4262,3D
JVASP-15349,Si2 Pd2 Sm1,0.0008,0.0009,9.999999999999994e-05,jarvis_3d,jarvis,high,mp-4275,3D
JVASP-15353,Ge2 Pd2 U1,0.0008,0.0014,0.0006,jarvis_3d,jarvis,high,mp-4297,3D
JVASP-15356,Sm2 Sn2 Au2,0.022,0.0298,0.007800000000000001,jarvis_3d,jarvis,high,mp-4304,3D
JVASP-15357,Si2 Cu2 Er1,0.0134,0.0255,0.012099999999999998,jarvis_3d,jarvis,high,mp-4305,3D
JVASP-15358,Ho2 Ag2 Sn2,0.0366,0.1133,0.07669999999999999,jarvis_3d,jarvis,high,mp-4311,3D
JVASP-15361,Si2 Pd2 Nd1,0.0014,0.0036,0.0021999999999999997,jarvis_3d,jarvis,high,mp-4323,3D
JVASP-15366,Ni2 Se2 Tl1,0.0017,0.2401,0.2384,jarvis_3d,jarvis,high,mp-4354,3D
JVASP-15369,As2 Sr1 Pd2,0.0026,0.0053,0.0027,jarvis_3d,jarvis,high,mp-4370,3D
JVASP-15384,Y3 Al1 C1,0.0903,0.0989,0.008599999999999997,jarvis_3d,jarvis,high,mp-4448,3D
JVASP-15413,C2 Ni1 Dy1,0.0021,0.0163,0.014199999999999999,jarvis_3d,jarvis,high,mp-4587,3D
JVASP-15418,Ti1 Co2 Ge1,0.0308,0.0332,0.0023999999999999994,jarvis_3d,jarvis,high,mp-4612,3D
JVASP-15420,Si2 Ag2 Tb1,0.0012,0.0049,0.0037,jarvis_3d,jarvis,high,mp-4614,3D
JVASP-15433,Ge2 Pd2 Nd1,0.0052,0.0072,0.002,jarvis_3d,jarvis,high,mp-4725,3D
JVASP-15435,Si2 Mn2 Er1,0.0066,0.0092,0.0026,jarvis_3d,jarvis,high,mp-4729,3D
JVASP-15441,Ca1 Ni2 As2,0.0078,0.0205,0.012700000000000001,jarvis_3d,jarvis,high,mp-4744,3D
JVASP-15447,Si2 Pd2 U1,0.0004,0.0009,0.0005,jarvis_3d,jarvis,high,mp-4793,3D
JVASP-15450,Co2 Ge2 Pr1,0.0024,0.0039,0.0015,jarvis_3d,jarvis,high,mp-4810,3D
JVASP-15451,Al1 Ni2 Nb1,0.0198,0.02,0.0001999999999999988,jarvis_3d,jarvis,high,mp-4813,3D
JVASP-15452,Si2 Rh2 Pr1,0.0018,0.0031,0.0013,jarvis_3d,jarvis,high,mp-4815,3D
JVASP-15453,Si2 Y1 Pd2,0.0037,0.0281,0.024399999999999998,jarvis_3d,jarvis,high,mp-4822,3D
JVASP-15458,Mn1 Rh1 Sb1,0.0067,0.0086,0.0018999999999999998,jarvis_3d,jarvis,high,mp-4846,3D
JVASP-15460,Sc2 Ge2 Nd2,0.0029,0.0103,0.0074,jarvis_3d,jarvis,high,mp-4854,3D
JVASP-15480,Al1 Mn1 Ni2,0.0022,0.0027,0.0005,jarvis_3d,jarvis,high,mp-4922,3D
JVASP-15488,Co2 Sb2 S2,0.0147,0.0415,0.026800000000000004,jarvis_3d,jarvis,high,mp-4962,3D
JVASP-15494,Si2 Mn2 Dy1,0.0097,0.0115,0.0017999999999999995,jarvis_3d,jarvis,high,mp-4985,3D
JVASP-15523,Zr4 Sb2 P2,0.0162,0.0172,0.0010000000000000009,jarvis_3d,jarvis,high,mp-5137,3D
JVASP-15563,U2 P1 N2,0.0007,0.0093,0.0086,jarvis_3d,jarvis,high,mp-5381,3D
JVASP-15566,Si2 Rh2 Er1,0.0026,0.0034,0.0007999999999999999,jarvis_3d,jarvis,high,mp-5386,3D
JVASP-15569,Si2 Cr2 Th1,0.0017,0.0032,0.0015000000000000002,jarvis_3d,jarvis,high,mp-5400,3D
JVASP-15570,Al1 Ti1 Co2,0.0053,0.0337,0.0284,jarvis_3d,jarvis,high,mp-5407,3D
JVASP-15571,Sm1 Co3 B2,0.0055,0.0088,0.003300000000000001,jarvis_3d,jarvis,high,mp-5410,3D
JVASP-15583,Al1 Mn1 Au2,0.0038,0.0561,0.0523,jarvis_3d,jarvis,high,mp-5491,3D
JVASP-15586,Ca1 Mn2 As2,0.0099,0.0155,0.005599999999999999,jarvis_3d,jarvis,high,mp-5498,3D
JVASP-15587,S2 Co2 Tl1,0.0026,0.0052,0.0026,jarvis_3d,jarvis,high,mp-5501,3D
JVASP-15588,N2 Te1 U2,0.0006,0.0043,0.0037,jarvis_3d,jarvis,high,mp-5505,3D
JVASP-15590,Si2 Au2 U1,0.0013,0.0035,0.0022,jarvis_3d,jarvis,high,mp-5510,3D
JVASP-15593,Ho2 Ge2 Au2,0.033,0.051,0.017999999999999995,jarvis_3d,jarvis,high,mp-5519,3D
JVASP-15608,P2 Ca1 Fe2,0.0067,0.0109,0.0042,jarvis_3d,jarvis,high,mp-5597,3D
JVASP-15612,P2 Co2 Nd1,0.0022,0.0043,0.0021,jarvis_3d,jarvis,high,mp-5622,3D
JVASP-15621,Si2 Ni2 Th1,0.0022,0.0051,0.0029000000000000002,jarvis_3d,jarvis,high,mp-5682,3D
JVASP-15630,Y2 Ag2 Sn2,0.0086,0.1052,0.0966,jarvis_3d,jarvis,high,mp-5729,3D
JVASP-15631,Si2 Ce1 Pt2,0.0,0.0005,0.0005,jarvis_3d,jarvis,high,mp-5734,3D
JVASP-15632,U2 S1 N2,0.0037,0.011,0.007299999999999999,jarvis_3d,jarvis,high,mp-5739,3D
JVASP-15635,Si2 Tb1 Ir2,0.0002,0.0009,0.0007,jarvis_3d,jarvis,high,mp-5752,3D
JVASP-15637,Al1 V1 Fe2,0.0152,0.0341,0.0189,jarvis_3d,jarvis,high,mp-5778,3D
JVASP-15642,B2 C2 U2,0.0006,0.01,0.0094,jarvis_3d,jarvis,high,mp-5816,3D
JVASP-15653,Ca2 Cu2 Sb2,0.0302,0.0586,0.028399999999999998,jarvis_3d,jarvis,high,mp-5910,3D
JVASP-15657,Al1 Ni2 Ta1,0.0265,0.1275,0.101,jarvis_3d,jarvis,high,mp-5921,3D
JVASP-15658,Si2 Cu2 Yb1,0.0098,0.0121,0.0023,jarvis_3d,jarvis,high,mp-5934,3D
JVASP-15668,Co2 Ge2 Tm1,0.0005,0.0008,0.00030000000000000003,jarvis_3d,jarvis,high,mp-5983,3D
JVASP-15693,Mn4 Sb2,0.0007,0.0027,0.002,jarvis_3d,jarvis,high,mp-6912,3D
JVASP-15697,Sc2 Sn2 Au2,0.0069,0.0251,0.0182,jarvis_3d,jarvis,high,mp-6919,3D
JVASP-15698,P2 Ca1 Pd2,0.0069,0.0098,0.0029,jarvis_3d,jarvis,high,mp-6926,3D
JVASP-15704,Ca1 Mn2 P2,0.0053,0.0068,0.0014999999999999996,jarvis_3d,jarvis,high,mp-6953,3D
JVASP-15708,Tl1 Sb1,0.0041,0.012,0.0079,jarvis_3d,jarvis,high,mp-6958,3D
JVASP-15713,Si2 Sc1 Cu2,0.0017,0.0077,0.006,jarvis_3d,jarvis,high,mp-6969,3D
JVASP-15725,Rb2 Te2 Au2,0.4247,0.6667,0.24199999999999994,jarvis_3d,jarvis,high,mp-7025,3D
JVASP-15729,Mn3 Pt1 N1,0.0097,0.013,0.003299999999999999,jarvis_3d,jarvis,high,mp-7070,3D
JVASP-15743,Si2 Er1 Pt2,0.0063,0.0105,0.004200000000000001,jarvis_3d,jarvis,high,mp-7107,3D
JVASP-15747,Ho3 Sn1 C1,0.0318,0.0617,0.029899999999999996,jarvis_3d,jarvis,high,mp-7114,3D
JVASP-15751,Pr1 Te1,0.0046,0.0239,0.0193,jarvis_3d,jarvis,high,mp-7131,3D
JVASP-15755,Os1 C1,0.0095,0.0186,0.009099999999999999,jarvis_3d,jarvis,high,mp-7142,3D
JVASP-15757,Sm3 Al1 C1,0.0011,0.0536,0.052500000000000005,jarvis_3d,jarvis,high,mp-7144,3D
JVASP-15758,Na2 Li1 N1,0.0476,0.8796,0.8320000000000001,jarvis_3d,jarvis,high,mp-7149,3D
JVASP-15768,P2 Te2 U2,0.0003,0.0017,0.0014,jarvis_3d,jarvis,high,mp-7170,3D
JVASP-15769,P1 Tm1,0.1415,0.3254,0.18390000000000004,jarvis_3d,jarvis,high,mp-7171,3D
JVASP-15777,V6 Ni2,0.0023,0.0055,0.0031999999999999997,jarvis_3d,jarvis,high,mp-7226,3D
JVASP-15786,Li1 P2 Cu2,0.006,0.0097,0.0037,jarvis_3d,jarvis,high,mp-7298,3D
JVASP-15792,Si2 Ca1 Au2,0.0033,0.0067,0.0034000000000000002,jarvis_3d,jarvis,high,mp-7364,3D
JVASP-15806,Ca1 Zn2 Sb2,0.1056,0.4085,0.30289999999999995,jarvis_3d,jarvis,high,mp-7429,3D
JVASP-15808,Sr1 Cd2 Sb2,0.0247,0.5341,0.5094000000000001,jarvis_3d,jarvis,high,mp-7432,3D
JVASP-15809,Cr1 Se4 Nb2,0.0036,0.0058,0.0021999999999999997,jarvis_3d,jarvis,high,mp-7443,3D
JVASP-15812,O2 Rb1 Yb1,4.5301,6.4238,1.8937,jarvis_3d,jarvis,high,mp-7479,3D
JVASP-15815,Th1 Zn2,0.0022,0.0077,0.0055,jarvis_3d,jarvis,high,mp-7496,3D
JVASP-15824,Li1 V1 S2,0.0007,0.0032,0.0025,jarvis_3d,jarvis,high,mp-7543,3D
JVASP-15831,Cr2 S4,0.0009,0.0026,0.0017,jarvis_3d,jarvis,high,mvc-7055,3D
JVASP-15834,Bi2 S4,0.012,0.0329,0.0209,jarvis_3d,jarvis,high,mvc-7058,3D
JVASP-15840,Al1 Co2 Si2,0.0046,0.0123,0.0077,jarvis_3d,jarvis,high,mp-10010,3D
JVASP-15851,Ge4 Os2,0.0072,0.0337,0.026500000000000003,jarvis_3d,jarvis,high,mp-10032,3D
JVASP-15855,Er3 Al1 C1,0.0247,0.0399,0.015199999999999998,jarvis_3d,jarvis,high,mp-10038,3D
JVASP-15858,Tb3 Al1 C1,0.045,0.0861,0.0411,jarvis_3d,jarvis,high,mp-10041,3D
JVASP-15879,Ca4 As2,0.008,0.213,0.205,jarvis_3d,jarvis,high,mp-10106,3D
JVASP-15882,Si1 Rh1,0.0036,0.0037,0.00010000000000000026,jarvis_3d,jarvis,high,mp-10110,3D
JVASP-15889,Sb2 Ir2,0.0261,0.031,0.004899999999999998,jarvis_3d,jarvis,high,mp-10125,3D
JVASP-15894,Yb1 B1 Pd3,0.012,0.0198,0.007800000000000001,jarvis_3d,jarvis,high,mp-10135,3D
JVASP-15897,Sm1 B2,0.0043,0.0054,0.0011000000000000003,jarvis_3d,jarvis,high,mp-10141,3D
JVASP-15898,B4 Ta3,0.0025,0.0102,0.0077,jarvis_3d,jarvis,high,mp-10142,3D
JVASP-15910,Li1 Mg1 Pd1 Sb1,0.0065,0.0523,0.0458,jarvis_3d,jarvis,high,mp-10179,3D
JVASP-15911,Li2 Pd1 Sb1,0.0241,0.0293,0.0052,jarvis_3d,jarvis,high,mp-10180,3D
JVASP-15912,Li1 Si1 Ni2,0.0085,0.0189,0.0104,jarvis_3d,jarvis,high,mp-10181,3D
JVASP-15919,P1 Lu1,0.1552,0.3557,0.2005,jarvis_3d,jarvis,high,mp-10192,3D
JVASP-15921,Sb1 Lu1 Pt1,0.063,0.4614,0.3984,jarvis_3d,jarvis,high,mp-10194,3D
JVASP-15925,Mn3 Pd1 N1,0.0211,0.0233,0.0022000000000000006,jarvis_3d,jarvis,high,mp-10198,3D
JVASP-15927,Ge2 Mo1,0.0251,0.0482,0.0231,jarvis_3d,jarvis,high,mp-10201,3D
JVASP-15942,O4 Sr2 Ir1,0.0101,0.0144,0.0043,jarvis_3d,jarvis,high,mp-10254,3D
JVASP-15948,Ni2 Te2,0.0016,0.006,0.0044,jarvis_3d,jarvis,high,mp-10264,3D
JVASP-15952,Er3 Ga1 C1,0.0582,0.1368,0.0786,jarvis_3d,jarvis,high,mp-10274,3D
JVASP-15954,Ho3 Ga1 C1,0.0113,0.0262,0.014900000000000002,jarvis_3d,jarvis,high,mp-10279,3D
JVASP-15955,Nd3 Ga1 C1,0.0111,0.0456,0.0345,jarvis_3d,jarvis,high,mp-10280,3D
JVASP-15956,K1 Mn1 Te2,0.0014,0.0095,0.0081,jarvis_3d,jarvis,high,mp-10286,3D
JVASP-15963,Tm3 Ga1 C1,0.0321,0.0448,0.012700000000000003,jarvis_3d,jarvis,high,mp-10351,3D
JVASP-15970,Cr3 Sn1 N1,0.0038,0.0078,0.004,jarvis_3d,jarvis,high,mp-10376,3D
JVASP-15980,Si2 Sr1 Ag2,0.001,0.0134,0.012400000000000001,jarvis_3d,jarvis,high,mp-7880,3D
JVASP-15986,Zr2 Si2 O2,0.013,0.0135,0.0005000000000000004,jarvis_3d,jarvis,high,mp-7915,3D
JVASP-15988,Hf2 Ge2 Se2,0.0028,0.0234,0.0206,jarvis_3d,jarvis,high,mp-7917,3D
JVASP-15996,Pt2 O2,0.0075,0.0187,0.011200000000000002,jarvis_3d,jarvis,high,mp-7947,3D
JVASP-16003,O1 Al2,0.0124,0.0171,0.004700000000000001,jarvis_3d,jarvis,high,mp-8022,3D
JVASP-16010,Cd1 Ba2,0.0011,0.0012,9.999999999999983e-05,jarvis_3d,jarvis,high,mp-8093,3D
JVASP-16022,Lu2 Cu2 Si2,0.0034,0.0098,0.0063999999999999994,jarvis_3d,jarvis,high,mp-8125,3D
JVASP-16024,C2 N2 S2 Ni1,0.0067,0.0145,0.0078000000000000005,jarvis_3d,jarvis,high,mp-8129,3D
JVASP-16027,Ba1 Cd2 Sb2,0.0164,0.3575,0.34109999999999996,jarvis_3d,jarvis,high,mp-8150,3D
JVASP-16042,Ta1 F3,0.0141,3.1144,3.1003,jarvis_3d,jarvis,high,mp-8338,3D
JVASP-16045,Pr3 Ga1 C1,0.0098,0.0579,0.048100000000000004,jarvis_3d,jarvis,high,mp-8368,3D
JVASP-16052,Ca2 Cu2 P2,0.0156,0.0556,0.039999999999999994,jarvis_3d,jarvis,high,mp-8432,3D
JVASP-16061,Sr2 Sn2 P2,0.0055,0.0084,0.0029,jarvis_3d,jarvis,high,mp-8539,3D
JVASP-16066,Sc3 Ga1 C1,0.0566,0.0774,0.0208,jarvis_3d,jarvis,high,mp-8577,3D
JVASP-16067,Sc3 In1 C1,0.0453,0.0632,0.017900000000000006,jarvis_3d,jarvis,high,mp-8578,3D
JVASP-16074,Ba1 Sb1 Pt1,0.0037,0.0309,0.027200000000000002,jarvis_3d,jarvis,high,mp-8606,3D
JVASP-16093,Sm2 Si2 Ru2,0.0051,0.0071,0.002,jarvis_3d,jarvis,high,mp-8655,3D
JVASP-16102,C2 Rh1 Sm1,0.0052,0.0061,0.0009000000000000006,jarvis_3d,jarvis,high,mp-8758,3D
JVASP-16103,C4 Co2 Nd2,0.0192,0.0246,0.005400000000000002,jarvis_3d,jarvis,high,mp-8761,3D
JVASP-16110,Nd2 As2 Pd2,0.0033,0.0267,0.0234,jarvis_3d,jarvis,high,mp-8950,3D
JVASP-16115,C4 Sc3 Ru1,0.0037,0.0142,0.0105,jarvis_3d,jarvis,high,mp-8996,3D
JVASP-16118,Y2 Si2 Au2,0.0155,0.0158,0.00030000000000000165,jarvis_3d,jarvis,high,mp-9025,3D
JVASP-16125,Th1 Si1 Au1,0.0134,0.0374,0.024,jarvis_3d,jarvis,high,mp-9164,3D
JVASP-16128,B2 C1 Ni2 Sm1,0.0015,0.0016,0.00010000000000000005,jarvis_3d,jarvis,high,mp-9220,3D
JVASP-16134,Na2 Te2 Au2,0.3236,0.6868,0.36319999999999997,jarvis_3d,jarvis,high,mp-9264,3D
JVASP-16136,Zr2 Sn2 Te2,0.0129,0.0156,0.0026999999999999993,jarvis_3d,jarvis,high,mp-9289,3D
JVASP-16138,C2 Ni1 Pr1,0.0017,0.0024,0.0006999999999999999,jarvis_3d,jarvis,high,mp-9312,3D
JVASP-16158,U1 Si1 Au1,0.0038,0.0146,0.0108,jarvis_3d,jarvis,high,mp-9487,3D
JVASP-16166,Al2 Si2 Ba3,0.0023,0.0029,0.0005999999999999998,jarvis_3d,jarvis,high,mp-9578,3D
JVASP-16169,Yb1 Mn2 As2,0.0089,0.0175,0.008600000000000002,jarvis_3d,jarvis,high,mp-9592,3D
JVASP-16197,Nb3 Cr3 Si3,0.0215,0.0485,0.027000000000000003,jarvis_3d,jarvis,high,mp-9916,3D
JVASP-16198,P4 V2,0.004,0.0163,0.012299999999999998,jarvis_3d,jarvis,high,mp-9923,3D
JVASP-16208,Si2 Hf4,0.0011,0.0015,0.00039999999999999996,jarvis_3d,jarvis,high,mp-9938,3D
JVASP-16216,Al2 Cr4 C2,0.002,0.0043,0.0023,jarvis_3d,jarvis,high,mp-9956,3D
JVASP-16219,Y3 Tl1 C1,0.051,0.0987,0.0477,jarvis_3d,jarvis,high,mp-9960,3D
JVASP-16222,Nd4 Si4,0.0004,0.0019,0.0015,jarvis_3d,jarvis,high,mp-9967,3D
JVASP-16224,Si2 Sc2,0.002,0.0028,0.0007999999999999999,jarvis_3d,jarvis,high,mp-9969,3D
JVASP-16225,Sc2 Ge2,0.0025,0.003,0.0005,jarvis_3d,jarvis,high,mp-9970,3D
JVASP-16228,B2 V2,0.0001,0.0014,0.0013,jarvis_3d,jarvis,high,mp-9973,3D
JVASP-16230,B2 Ni2 Nb2,0.0044,0.0049,0.0004999999999999996,jarvis_3d,jarvis,high,mp-9985,3D
JVASP-16235,B2 Ni1 Mo2,0.014,0.0212,0.0072,jarvis_3d,jarvis,high,mp-9999,3D
JVASP-16243,Sc6 Fe1 Te2,0.0051,0.0093,0.004199999999999999,jarvis_3d,jarvis,high,mp-10445,3D
JVASP-16246,Lu1 Si2 Ru2,0.0014,0.0026,0.0012,jarvis_3d,jarvis,high,mp-10453,3D
JVASP-16252,Al1 Si2 Y2,0.0034,0.0088,0.0054,jarvis_3d,jarvis,high,mp-10527,3D
JVASP-16255,Al1 Si2 Tm2,0.0111,0.0111,0.0,jarvis_3d,jarvis,high,mp-10530,3D
JVASP-16260,Fe1 Ir3,0.0023,0.0028,0.0005,jarvis_3d,jarvis,high,mp-10596,3D
JVASP-16265,Sm3 Ga1 C1,0.0166,0.02,0.0034000000000000002,jarvis_3d,jarvis,high,mp-10602,3D
JVASP-16272,As1 Pr1,0.1237,0.3052,0.18150000000000002,jarvis_3d,jarvis,high,mp-10622,3D
JVASP-16274,Si2 Rh2 Yb1,0.0049,0.0052,0.0002999999999999999,jarvis_3d,jarvis,high,mp-10626,3D
JVASP-16284,Th1 Sb1,0.026,0.0412,0.015200000000000002,jarvis_3d,jarvis,high,mp-10637,3D
JVASP-16289,Si2 Yb2,0.0011,0.0035,0.0024000000000000002,jarvis_3d,jarvis,high,mp-10651,3D
JVASP-16290,Sm1 Te1,0.006,0.0194,0.0134,jarvis_3d,jarvis,high,mp-10652,3D
JVASP-16295,Mn3 Ag1 N1,0.0111,0.0154,0.0043,jarvis_3d,jarvis,high,mp-10666,3D
JVASP-16296,Si2 Ag2 Yb1,0.0049,0.006,0.0011000000000000003,jarvis_3d,jarvis,high,mp-10668,3D
JVASP-16297,Al2 Ge2 Ba3,0.0029,0.0043,0.0014000000000000002,jarvis_3d,jarvis,high,mp-10669,3D
JVASP-16299,Sm3 Al1 N1,0.0224,0.0632,0.0408,jarvis_3d,jarvis,high,mp-10674,3D
JVASP-16301,Ca2 P2 Au2,0.0528,0.1905,0.1377,jarvis_3d,jarvis,high,mp-10677,3D
JVASP-16306,Ca1 Te1,0.1081,0.5923,0.4842000000000001,jarvis_3d,jarvis,high,mp-10684,3D
JVASP-16314,Ge2 Rh2 Ba1,0.0093,0.0139,0.0046,jarvis_3d,jarvis,high,mp-10698,3D
JVASP-16315,Lu1 Rh3 C1,0.0101,0.0861,0.076,jarvis_3d,jarvis,high,mp-10699,3D
JVASP-16320,V3 Si6,0.0027,0.0036,0.0008999999999999998,jarvis_3d,jarvis,high,mp-10711,3D
JVASP-16323,Sm3 Sn1 C1,0.0181,0.0196,0.0014999999999999979,jarvis_3d,jarvis,high,mp-10718,3D
JVASP-16341,Ba2 Sb2 Au2,0.0042,0.0058,0.0015999999999999999,jarvis_3d,jarvis,high,mp-10769,3D
JVASP-16352,Sm2 P2 Pd2,0.0025,0.0147,0.012199999999999999,jarvis_3d,jarvis,high,mp-10868,3D
JVASP-16354,Al1 Au1,0.0059,0.0119,0.006000000000000001,jarvis_3d,jarvis,high,mp-10871,3D
JVASP-16366,Al1 Mn1 Pd2,0.0216,0.0262,0.0046,jarvis_3d,jarvis,high,mp-10891,3D
JVASP-16368,Al1 Mn1 Pt2,0.0022,0.0084,0.006199999999999999,jarvis_3d,jarvis,high,mp-10893,3D
JVASP-16370,Al1 V1 Mn2,0.0102,0.0136,0.0033999999999999985,jarvis_3d,jarvis,high,mp-10895,3D
JVASP-16373,Al1 V1 Ni2,0.0135,0.0625,0.049,jarvis_3d,jarvis,high,mp-10899,3D
JVASP-16375,Pr1 Al1,0.0385,0.1061,0.0676,jarvis_3d,jarvis,high,mp-10902,3D
JVASP-16376,Al1 Pt1,0.0063,0.0438,0.0375,jarvis_3d,jarvis,high,mp-10903,3D
JVASP-16378,Al3 Pt2,0.0013,0.0156,0.0143,jarvis_3d,jarvis,high,mp-10905,3D
JVASP-16401,Pa2 As4,0.001,0.0013,0.0002999999999999999,jarvis_3d,jarvis,high,mp-11106,3D
JVASP-16402,Ti2 As2 Te2,0.0016,0.0016,0.0,jarvis_3d,jarvis,high,mp-11113,3D
JVASP-16405,Sm3 Mg3 Ga3,0.0244,0.0307,0.0063,jarvis_3d,jarvis,high,mp-11157,3D
JVASP-16410,C2 Na2,3.7248,5.3249,1.6001000000000003,jarvis_3d,jarvis,high,mp-11180,3D
JVASP-16412,V3 Si6,0.0027,0.0036,0.0008999999999999998,jarvis_3d,jarvis,high,mp-11190,3D
JVASP-16420,Tm6 Fe1 Sb2,0.0002,0.0128,0.0126,jarvis_3d,jarvis,high,mp-11204,3D
JVASP-16423,Ba2 Ag2 Sb2,0.0424,0.0729,0.030500000000000006,jarvis_3d,jarvis,high,mp-11213,3D
JVASP-16427,Sm1 Al1,0.0165,0.035,0.018500000000000003,jarvis_3d,jarvis,high,mp-11221,3D
JVASP-16439,Zr2 Ag2,0.0133,0.0295,0.0162,jarvis_3d,jarvis,high,mp-11239,3D
JVASP-16442,Dy1 Au1 Pb1,0.0637,0.1361,0.07239999999999999,jarvis_3d,jarvis,high,mp-11242,3D
JVASP-16443,Er2 Au2,0.0003,0.0015,0.0012000000000000001,jarvis_3d,jarvis,high,mp-11243,3D
JVASP-16459,Be1 Rh1,0.0086,0.0246,0.016,jarvis_3d,jarvis,high,mp-11276,3D
JVASP-16470,Dy1 Cd2,0.0067,0.0143,0.0076,jarvis_3d,jarvis,high,mp-11294,3D
JVASP-16472,Er1 Cd2,0.0085,0.01,0.0014999999999999996,jarvis_3d,jarvis,high,mp-11296,3D
JVASP-16475,Ho1 Cd2,0.0047,0.0054,0.0007000000000000001,jarvis_3d,jarvis,high,mp-11301,3D
JVASP-16480,Nb1 Cd3,0.003,0.0124,0.009399999999999999,jarvis_3d,jarvis,high,mp-11309,3D
JVASP-16486,Si2 Zr2,0.0003,0.0031,0.0028,jarvis_3d,jarvis,high,mp-11322,3D
JVASP-16489,P4 W2,0.0007,0.0026,0.0018999999999999998,jarvis_3d,jarvis,high,mp-11329,3D
JVASP-16493,O1 Pr1,0.003,0.0192,0.0162,jarvis_3d,jarvis,high,mp-11344,3D
JVASP-16497,Ta1 Co3,0.0011,0.0082,0.0071,jarvis_3d,jarvis,high,mp-11358,3D