material_id,formula,pbe_bandgap,hse_bandgap,bandgap_correction,dataset,data_source,confidence,mpid,dimensionality
JVASP-12949,S6 K4 Ti2,1.1638,1.3426,0.17880000000000007,jarvis_3d,jarvis,high,mp-28766,3D
JVASP-12952,Na6 P2 S8,2.2342,3.3378,1.1036000000000001,jarvis_3d,jarvis,high,mp-28782,3D
JVASP-12954,Mg4 C6,1.7412,2.4086,0.6673999999999998,jarvis_3d,jarvis,high,mp-28793,3D
JVASP-12955,O8 Sr5 Au2,1.3524,1.9432,0.5908,jarvis_3d,jarvis,high,mp-28796,3D
JVASP-12956,C2 Na4 S6,1.2804,2.402,1.1216000000000002,jarvis_3d,jarvis,high,mp-28810,3D
JVASP-12961,P6 Cl2 Hg4,1.2212,1.8882,0.667,jarvis_3d,jarvis,high,mp-28875,3D
JVASP-12962,Ca5 P8,1.3893,1.8497,0.4603999999999999,jarvis_3d,jarvis,high,mp-28879,3D
JVASP-12964,As6 Br2 Cd4,0.8728,1.5942,0.7214,jarvis_3d,jarvis,high,mp-28900,3D
JVASP-12968,Ga4 Te2 O12,0.9581,2.1685,1.2104,jarvis_3d,jarvis,high,mp-28931,3D
JVASP-12970,Mg6 B2 N6,1.5975,2.5286,0.9311,jarvis_3d,jarvis,high,mp-28955,3D
JVASP-12971,O11 Ti4 Bi2,2.1355,2.598,0.4624999999999999,jarvis_3d,jarvis,high,mp-28962,3D
JVASP-12973,Ba2 Pd4 S8,0.9689,1.1096,0.14069999999999994,jarvis_3d,jarvis,high,mp-28967,3D
JVASP-12974,Pr4 N2 Cl6,3.258,3.9648,0.7067999999999999,jarvis_3d,jarvis,high,mp-28969,3D
JVASP-12981,Ag3 I9 Tl6,2.3164,3.2899,0.9735,jarvis_3d,jarvis,high,mp-29012,3D
JVASP-12982,P3 Cl14 Br1,1.7076,2.2541,0.5465000000000002,jarvis_3d,jarvis,high,mp-29033,3D
JVASP-12984,Na2 Er2 Cl8,4.8909,6.1814,1.2904999999999998,jarvis_3d,jarvis,high,mp-29083,3D
JVASP-12985,Al4 Fe6 Si6,0.0018,0.0081,0.0063,jarvis_3d,jarvis,high,mp-29110,3D
JVASP-13003,In4 Te4 Br4,1.4729,2.4074,0.9344999999999999,jarvis_3d,jarvis,high,mp-29236,3D
JVASP-13004,P6 Cd4 I2,1.0985,1.7097,0.6112,jarvis_3d,jarvis,high,mp-29244,3D
JVASP-13005,P6 Br2 Cd4,1.1447,1.8686,0.7239,jarvis_3d,jarvis,high,mp-29245,3D
JVASP-13017,Ga2 Cu2 Cl8,1.8844,2.1891,0.30469999999999975,jarvis_3d,jarvis,high,mp-29362,3D
JVASP-13018,Li5 O5 Sb1,3.1226,4.3911,1.2685,jarvis_3d,jarvis,high,mp-29364,3D
JVASP-13020,O4 Cu4 Pb2,0.2992,0.7168,0.41759999999999997,jarvis_3d,jarvis,high,mp-29396,3D
JVASP-13023,Hf1 Te4 Cl6,0.9018,1.0686,0.16679999999999995,jarvis_3d,jarvis,high,mp-29419,3D
JVASP-13026,Rb4 I2 N6,4.2766,5.2835,1.0069,jarvis_3d,jarvis,high,mp-29456,3D
JVASP-13027,Li4 Be4 N4,2.8277,3.9117,1.084,jarvis_3d,jarvis,high,mp-29463,3D
JVASP-13028,Pd2 Se12 Cl4,1.0378,1.5624,0.5246,jarvis_3d,jarvis,high,mp-29469,3D
JVASP-13030,Li2 Au2 I8,0.0448,1.0007,0.9559,jarvis_3d,jarvis,high,mp-29520,3D
JVASP-13031,O4 Cl8,1.0016,2.356,1.3543999999999998,jarvis_3d,jarvis,high,mp-29537,3D
JVASP-13036,O2 F10 Sn4,2.1273,2.6269,0.49960000000000004,jarvis_3d,jarvis,high,mp-29590,3D
JVASP-13040,Na8 Sn2 S8,2.053,3.6516,1.5986000000000002,jarvis_3d,jarvis,high,mp-29628,3D
JVASP-13042,Ge1 Sb4 Te7,0.0274,0.4448,0.4174,jarvis_3d,jarvis,high,mp-29641,3D
JVASP-13060,I4 F12,2.0012,4.4839,2.4827000000000004,jarvis_3d,jarvis,high,mp-29848,3D
JVASP-13061,Se8 Br2 Bi6,1.0556,1.6246,0.569,jarvis_3d,jarvis,high,mp-29857,3D
JVASP-13062,Sn4 Br8,2.5511,3.3095,0.7584,jarvis_3d,jarvis,high,mp-29862,3D
JVASP-13063,S2 Cl8 Sm4,3.5085,4.38,0.8714999999999997,jarvis_3d,jarvis,high,mp-29880,3D
JVASP-13064,Tl4 Au8 S6,1.1396,1.5779,0.43830000000000013,jarvis_3d,jarvis,high,mp-29898,3D
JVASP-13066,I4 O8 F4,2.7654,4.1825,1.4171,jarvis_3d,jarvis,high,mp-29946,3D
JVASP-13067,B2 Se6 Tl2,0.9228,1.867,0.9442,jarvis_3d,jarvis,high,mp-29959,3D
JVASP-13069,B2 Na6 S6,2.6931,3.955,1.2619000000000002,jarvis_3d,jarvis,high,mp-29976,3D
JVASP-13071,Ta2 Ag2 F12,3.3082,3.8036,0.49540000000000006,jarvis_3d,jarvis,high,mp-29993,3D
JVASP-13074,O8 I2 Tl2,1.6799,1.732,0.052100000000000035,jarvis_3d,jarvis,high,mp-30032,3D
JVASP-13081,B4 S8 Ba2,2.6728,3.5862,0.9133999999999998,jarvis_3d,jarvis,high,mp-30126,3D
JVASP-13084,Li4 Mg4 N4,2.6027,3.4909,0.8881999999999999,jarvis_3d,jarvis,high,mp-30156,3D
JVASP-13086,Si2 C4 N8,4.2731,5.6497,1.3765999999999998,jarvis_3d,jarvis,high,mp-30160,3D
JVASP-13087,C2 N8 Si4,4.4641,5.8006,1.3365,jarvis_3d,jarvis,high,mp-30161,3D
JVASP-13092,C8 O8 Ba2,2.6673,3.8676,1.2003,jarvis_3d,jarvis,high,mp-30237,3D
JVASP-13093,Mg5 H2 O6,4.2638,6.3357,2.0719000000000003,jarvis_3d,jarvis,high,mp-30241,3D
JVASP-13094,Mg4 H2 O5,4.5465,6.4823,1.9358000000000004,jarvis_3d,jarvis,high,mp-30242,3D
JVASP-13095,Mg6 H4 O8,4.2503,6.3269,2.0766,jarvis_3d,jarvis,high,mp-30243,3D
JVASP-13096,Mg3 H4 O5,4.0962,6.2328,2.1366000000000005,jarvis_3d,jarvis,high,mp-30245,3D
JVASP-13103,S8 Sr4 Sn2,2.4442,3.5681,1.1239,jarvis_3d,jarvis,high,mp-30294,3D
JVASP-13104,K4 As4 O8,3.6803,4.9141,1.2338000000000005,jarvis_3d,jarvis,high,mp-30298,3D
JVASP-13112,Ca8 Pb4,0.0135,0.0599,0.046400000000000004,jarvis_3d,jarvis,high,mp-30478,3D
JVASP-13113,Tl4 Zn2 I8,2.7977,3.6452,0.8475000000000001,jarvis_3d,jarvis,high,mp-30532,3D
JVASP-13114,K2 Pt4 S6,1.317,1.7265,0.4095,jarvis_3d,jarvis,high,mp-30533,3D
JVASP-13132,Rb2 Au2 Br8,1.3929,2.0029,0.6099999999999999,jarvis_3d,jarvis,high,mp-30996,3D
JVASP-13138,Tl4 Te2 Br12,2.0908,2.5619,0.47109999999999985,jarvis_3d,jarvis,high,mp-31076,3D
JVASP-13140,Sc1 Mn4 Al8,0.0042,0.0084,0.0042,jarvis_3d,jarvis,high,mp-31081,3D
JVASP-13147,Al8 Fe4 Ho1,0.0006,0.0043,0.0037,jarvis_3d,jarvis,high,mp-31179,3D
JVASP-13155,Al2 Bi2 Br12,2.5794,3.5285,0.9491,jarvis_3d,jarvis,high,mp-31268,3D
JVASP-13159,Li4 Cl4 O8,2.6053,2.7661,0.1607999999999996,jarvis_3d,jarvis,high,mp-31367,3D
JVASP-13162,Li4 Ca4 N4,1.7246,3.2637,1.5391000000000001,jarvis_3d,jarvis,high,mp-31468,3D
JVASP-13169,Na6 Co2 O6,0.0522,0.1362,0.08399999999999999,jarvis_3d,jarvis,high,mp-31584,3D
JVASP-13176,O8 P2 Cr2,0.0014,0.0046,0.0031999999999999997,jarvis_3d,jarvis,high,mp-31645,3D
JVASP-13254,Nb1 Bi3 O7,1.8306,2.0014,0.17079999999999984,jarvis_3d,jarvis,high,mp-34036,3D
JVASP-13262,Ca2 Pr4 S8,2.0736,2.7502,0.6766000000000001,jarvis_3d,jarvis,high,mp-34185,3D
JVASP-13280,Fe4 O8 Zn2,0.0114,0.0254,0.013999999999999999,jarvis_3d,jarvis,high,mp-34730,3D
JVASP-13286,Nb1 Bi3 O7,1.8264,2.0172,0.19079999999999986,jarvis_3d,jarvis,high,mp-35185,3D
JVASP-13288,Na4 O6 S2,0.0169,0.873,0.8561,jarvis_3d,jarvis,high,mp-35248,3D
JVASP-13290,Al5 Cu1 S8,1.5852,1.8174,0.23219999999999996,jarvis_3d,jarvis,high,mp-35267,3D
JVASP-13291,Ca8 S2 Sb4,1.141,1.5743,0.4333,jarvis_3d,jarvis,high,mp-35269,3D
JVASP-13292,Cd2 S8 Sm4,1.7639,2.8117,1.0478,jarvis_3d,jarvis,high,mp-35281,3D
JVASP-13297,Fe4 O8 Ti1,0.0018,0.0046,0.0028,jarvis_3d,jarvis,high,mp-35482,3D
JVASP-13298,O8 Sn2 Zn4,1.0399,2.5423,1.5024,jarvis_3d,jarvis,high,mp-35493,3D
JVASP-13299,Ag1 Dy5 S8,1.7135,2.0747,0.36119999999999997,jarvis_3d,jarvis,high,mp-35512,3D
JVASP-13300,Zr7 N4 O8,2.6771,3.2456,0.5685000000000002,jarvis_3d,jarvis,high,mp-35527,3D
JVASP-13304,Cd2 Pr4 Se8,0.9999,2.0621,1.0622,jarvis_3d,jarvis,high,mp-35630,3D
JVASP-13305,O8 Pt2 Zn4,0.8803,1.3524,0.4721000000000001,jarvis_3d,jarvis,high,mp-35647,3D
JVASP-13307,S8 Sr2 Y4,2.224,2.6925,0.4684999999999997,jarvis_3d,jarvis,high,mp-35746,3D
JVASP-13309,Ca2 Dy4 S8,2.201,2.8224,0.6214,jarvis_3d,jarvis,high,mp-35787,3D
JVASP-13310,Ca2 Nd4 S8,2.0791,2.7825,0.7034000000000002,jarvis_3d,jarvis,high,mp-35876,3D
JVASP-13313,Ag3 Cl6 Y1,2.7974,4.2659,1.4685000000000001,jarvis_3d,jarvis,high,mp-35906,3D
JVASP-13315,Ag2 Bi2 I8,1.0301,1.5922,0.5621,jarvis_3d,jarvis,high,mp-35909,3D
JVASP-13321,Ca2 S8 Sm4,2.1079,2.9165,0.8086000000000002,jarvis_3d,jarvis,high,mp-36100,3D
JVASP-13322,Ba2 Pr4 S8,2.0001,2.682,0.6818999999999997,jarvis_3d,jarvis,high,mp-36223,3D
JVASP-13323,Cu1 Nd5 Se8,1.0056,1.0061,0.0004999999999999449,jarvis_3d,jarvis,high,mp-36252,3D
JVASP-13333,Ag1 Nd5 Se8,1.4621,1.7146,0.25249999999999995,jarvis_3d,jarvis,high,mp-36592,3D
JVASP-13341,Al4 Cd2 O8,2.9782,4.4359,1.4577,jarvis_3d,jarvis,high,mp-36866,3D
JVASP-13345,Cd2 Pr4 S8,1.6516,2.7087,1.0571,jarvis_3d,jarvis,high,mp-36912,3D
JVASP-13346,Fe2 K6 O5,0.2847,0.369,0.08429999999999999,jarvis_3d,jarvis,high,mp-36915,3D
JVASP-13348,Al4 Ca2 Se8,2.972,3.7937,0.8216999999999999,jarvis_3d,jarvis,high,mp-36988,3D
JVASP-13350,Ta1 Bi3 O7,2.0343,2.947,0.9127000000000001,jarvis_3d,jarvis,high,mp-37030,3D
JVASP-13354,Cd2 Nd4 S8,1.6922,2.7066,1.0144,jarvis_3d,jarvis,high,mp-37233,3D
JVASP-13355,Ca2 Nd4 Te8,1.1705,1.4993,0.3288,jarvis_3d,jarvis,high,mp-37263,3D
JVASP-13357,Li7 Nb1 O6,3.5673,4.167,0.5996999999999999,jarvis_3d,jarvis,high,mp-37399,3D
JVASP-13359,Na4 S2 O5,2.4836,4.4011,1.9174999999999995,jarvis_3d,jarvis,high,mp-37430,3D
JVASP-13360,Li7 Sb1 O6,3.6768,4.9565,1.2797,jarvis_3d,jarvis,high,mp-37436,3D
JVASP-13364,Li10 N2 Cl4,2.3272,2.7762,0.44899999999999984,jarvis_3d,jarvis,high,mp-37498,3D
JVASP-13365,Ca2 Pr4 Te8,1.1658,1.4801,0.3143,jarvis_3d,jarvis,high,mp-37520,3D
JVASP-13377,O8 Ti3 Zn2,1.8917,2.4388,0.5471000000000001,jarvis_3d,jarvis,high,mp-37995,3D
JVASP-13380,Rb8 Cd4 O8,1.5328,2.9907,1.4579,jarvis_3d,jarvis,high,mp-28364,3D
JVASP-13388,K8 Te4 Se12,1.622,2.662,1.0399999999999998,jarvis_3d,jarvis,high,mp-28419,3D
JVASP-13397,K4 In4 Br12,2.2582,3.532,1.2738,jarvis_3d,jarvis,high,mp-28529,3D
JVASP-13401,Si4 H12 I4,4.0754,5.1382,1.0628000000000002,jarvis_3d,jarvis,high,mp-28538,3D
JVASP-13406,Br12 Rb8 Pb2,3.9454,4.9751,1.0297000000000005,jarvis_3d,jarvis,high,mp-28564,3D
JVASP-13413,O14 Ta4 Th2,2.7576,3.8646,1.1069999999999998,jarvis_3d,jarvis,high,mp-28611,3D
JVASP-13418,K4 Si4 H12,2.4909,3.1985,0.7076000000000002,jarvis_3d,jarvis,high,mp-28695,3D
JVASP-13421,Pt2 S4 Cl16,1.7914,2.3529,0.5614999999999999,jarvis_3d,jarvis,high,mp-28721,3D
JVASP-13425,S2 Cl18 Sb2,1.4439,2.4268,0.9829000000000001,jarvis_3d,jarvis,high,mp-28772,3D
JVASP-14282,Sn6 F16,3.3057,4.9126,1.6069000000000004,jarvis_3d,jarvis,high,mp-1443,3D
JVASP-14315,Yb8 S8 O4,0.7594,1.6722,0.9128,jarvis_3d,jarvis,high,mp-22399,3D
JVASP-14323,Bi4 P4 O16,2.139,3.3619,1.2229,jarvis_3d,jarvis,high,mp-23332,3D
JVASP-14351,Rb4 Te2 I12,1.4245,1.7506,0.32609999999999983,jarvis_3d,jarvis,high,mp-28070,3D
JVASP-14396,S8 N8 F8,3.3583,4.976,1.6177000000000001,jarvis_3d,jarvis,high,mp-4937,3D
JVASP-14410,K4 Hf2 F12,7.328,9.5951,2.2671,jarvis_3d,jarvis,high,mp-8590,3D
JVASP-14411,S3 F18,6.0451,7.4912,1.4461000000000004,jarvis_3d,jarvis,high,mp-8652,3D
JVASP-18961,Dy8 S12,0.2494,1.5132,1.2638,jarvis_3d,jarvis,high,mp-1270,3D
JVASP-18983,Ti8 O16,2.2539,2.6529,0.399,jarvis_3d,jarvis,high,mp-1840,3D
JVASP-18984,Hf8 O16,4.3149,5.9035,1.5886000000000005,jarvis_3d,jarvis,high,mp-1858,3D
JVASP-18991,Sb8 O12,2.163,3.3662,1.2032000000000003,jarvis_3d,jarvis,high,mp-2136,3D
JVASP-18997,Si12 N16,4.8401,5.8667,1.0266000000000002,jarvis_3d,jarvis,high,mp-2245,3D
JVASP-18999,Tm8 S12,1.2002,1.9192,0.7190000000000001,jarvis_3d,jarvis,high,mp-2309,3D
JVASP-19024,O12 Mg6 Te2,3.1118,4.3036,1.1918000000000002,jarvis_3d,jarvis,high,mp-3118,3D
JVASP-19040,O14 Ti4 Sm4,2.7667,3.1196,0.3529,jarvis_3d,jarvis,high,mp-3335,3D
JVASP-19056,B4 O12 Ca6,5.2699,7.3366,2.0667,jarvis_3d,jarvis,high,mp-3575,3D
JVASP-19060,O14 Dy4 Hf4,3.3123,4.9342,1.6218999999999997,jarvis_3d,jarvis,high,mp-3611,3D
JVASP-19061,Nb4 Sb4 O16,2.466,3.1798,0.7138,jarvis_3d,jarvis,high,mp-3612,3D
JVASP-19071,O14 Al8 Sr2,3.995,6.2232,2.2282,jarvis_3d,jarvis,high,mp-3788,3D
JVASP-19086,K8 C4 O12,4.2688,7.007,2.7382,jarvis_3d,jarvis,high,mp-3963,3D
JVASP-19087,Na8 N8 O8,3.3868,4.1984,0.8116000000000003,jarvis_3d,jarvis,high,mp-3967,3D
JVASP-19094,Na8 Ge4 S12,2.3766,3.7654,1.3888000000000003,jarvis_3d,jarvis,high,mp-4068,3D
JVASP-19096,Sr4 Se4 O16,3.7614,5.1625,1.4010999999999996,jarvis_3d,jarvis,high,mp-4092,3D
JVASP-19097,O14 Sr4 Sb4,1.5212,2.6081,1.0868999999999998,jarvis_3d,jarvis,high,mp-4103,3D
JVASP-19100,Rb8 C4 O12,3.9327,6.75,2.8173,jarvis_3d,jarvis,high,mp-4138,3D
JVASP-19105,Na8 S8 O12,4.2937,5.7306,1.4368999999999996,jarvis_3d,jarvis,high,mp-4199,3D
JVASP-19106,Sn4 P4 S12,1.7317,2.1189,0.3872,jarvis_3d,jarvis,high,mp-4252,3D
JVASP-19107,Sr4 Te4 O16,2.3175,3.5455,1.2280000000000002,jarvis_3d,jarvis,high,mp-4274,3D
JVASP-19110,O12 Mg4 Si4,4.9226,6.5102,1.5876000000000001,jarvis_3d,jarvis,high,mp-4321,3D
JVASP-19122,Tm8 S12,0.6901,1.3674,0.6772999999999999,jarvis_3d,jarvis,high,mp-974,3D
JVASP-19164,Ta4 Zn4 Sn2 O16,2.6931,3.1815,0.4884000000000004,jarvis_3d,jarvis,high,mvc-2362,3D
JVASP-19166,Mg4 Ta4 Sn2 O16,3.04,3.3635,0.3235000000000001,jarvis_3d,jarvis,high,mvc-2377,3D
JVASP-19255,Mg4 Mo6 O16,1.714,1.9843,0.2703,jarvis_3d,jarvis,high,mvc-3226,3D
JVASP-19299,Mg6 Ni4 O14,0.0275,0.0275,0.0,jarvis_3d,jarvis,high,mvc-3616,3D
JVASP-19354,Zn4 Bi4 O12,0.8656,1.2189,0.35330000000000006,jarvis_3d,jarvis,high,mvc-3874,3D
JVASP-19359,Zn4 Ag2 Sb2 O12,0.0294,0.055,0.0256,jarvis_3d,jarvis,high,mvc-3959,3D
JVASP-19370,Mg4 Cr4 O12,0.0011,0.0022,0.0011,jarvis_3d,jarvis,high,mvc-3987,3D
JVASP-19406,Ca4 Ta2 Ag2 O12,0.0618,0.8125,0.7507,jarvis_3d,jarvis,high,mvc-4204,3D
JVASP-21219,O14 Sn4 Pr4,2.8285,4.3197,1.4912,jarvis_3d,jarvis,high,mp-4394,3D
JVASP-21243,O12 Na4 Ta4,2.4774,3.7623,1.2849000000000004,jarvis_3d,jarvis,high,mp-4699,3D
JVASP-21244,B4 O12 Hg6,2.6047,3.4226,0.8179000000000003,jarvis_3d,jarvis,high,mp-4710,3D
JVASP-21245,O12 Na4 Nb4,1.7677,2.3914,0.6236999999999999,jarvis_3d,jarvis,high,mp-4748,3D
JVASP-21262,Ti4 Cd4 O12,2.3839,2.7938,0.40989999999999993,jarvis_3d,jarvis,high,mp-5052,3D
JVASP-21263,Na12 Mn2 S8,0.2497,1.7026,1.4528999999999999,jarvis_3d,jarvis,high,mp-5055,3D
JVASP-21274,Ca6 Te2 O12,3.4657,4.5617,1.096,jarvis_3d,jarvis,high,mp-5279,3D
JVASP-21298,Mg2 Cu2 Si4 O12,3.3464,4.5127,1.1662999999999997,jarvis_3d,jarvis,high,mvc-4926,3D
JVASP-21299,Ca2 Si4 Sn2 O12,3.1478,4.3107,1.1628999999999996,jarvis_3d,jarvis,high,mvc-4931,3D
JVASP-21313,Zn2 Si4 Sn2 O12,3.5529,4.87,1.3171,jarvis_3d,jarvis,high,mvc-5007,3D
JVASP-21352,Ca2 Si4 W2 O12,0.8163,1.0139,0.1976,jarvis_3d,jarvis,high,mvc-5130,3D
JVASP-27535,Cd4 S4 O12,3.4632,6.2298,2.7666,jarvis_3d,jarvis,high,mp-8516,3D
JVASP-8388,Mo1 W1 O6,1.0425,2.1063,1.0638,jarvis_3d,jarvis,high,mvc-5693,3D
JVASP-42683,Fe6 O8 F4,0.0006,0.0026,0.002,jarvis_3d,jarvis,high,mp-850393,3D
JVASP-42355,Hf4 Zr4 O16,4.2435,4.8933,0.6497999999999999,jarvis_3d,jarvis,high,mp-781634,3D
JVASP-42418,V4 O8 F4,0.8944,1.1672,0.27280000000000004,jarvis_3d,jarvis,high,mp-782680,3D
JVASP-14632,C2 Tm1,0.0042,0.0134,0.0092,jarvis_3d,jarvis,high,mp-269,3D
JVASP-14634,Nb5 Sb4,0.0006,0.0018,0.0012000000000000001,jarvis_3d,jarvis,high,mp-274,3D
JVASP-14635,Ni4 Tb2,0.0113,0.0337,0.022400000000000003,jarvis_3d,jarvis,high,mp-276,3D
JVASP-14642,V6 As2,0.0018,0.0293,0.0275,jarvis_3d,jarvis,high,mp-292,3D
JVASP-14643,As1 Ho1,0.1933,0.2736,0.08030000000000001,jarvis_3d,jarvis,high,mp-295,3D
JVASP-14647,Th1 Ag2,0.0014,0.0027,0.0013000000000000002,jarvis_3d,jarvis,high,mp-309,3D
JVASP-14651,C2 Y1,0.0048,0.0069,0.0021000000000000003,jarvis_3d,jarvis,high,mp-313,3D
JVASP-14652,Mn1 V1,0.0015,0.0089,0.0074,jarvis_3d,jarvis,high,mp-316,3D
JVASP-14653,Sn4 Rh4,0.018,0.0204,0.002400000000000003,jarvis_3d,jarvis,high,mp-317,3D
JVASP-14656,Rh2 Pb4,0.0006,0.0012,0.0006,jarvis_3d,jarvis,high,mp-321,3D
JVASP-14659,Sc1 Al1,0.017,0.0428,0.025799999999999997,jarvis_3d,jarvis,high,mp-331,3D
JVASP-14660,Fe4 Hf2,0.0027,0.005,0.0023,jarvis_3d,jarvis,high,mp-333,3D
JVASP-14662,Co4 Sm2,0.0069,0.0118,0.0049,jarvis_3d,jarvis,high,mp-336,3D
JVASP-14666,N1 Pr1,0.0689,0.6691,0.6002000000000001,jarvis_3d,jarvis,high,mp-343,3D
JVASP-14668,Tm1 Pd1,0.0062,0.013,0.0068,jarvis_3d,jarvis,high,mp-348,3D
JVASP-14669,Yb3 Si5,0.0123,0.022,0.009699999999999999,jarvis_3d,jarvis,high,mp-349,3D
JVASP-14672,Si4 Ni4,0.0009,0.0013,0.00039999999999999996,jarvis_3d,jarvis,high,mp-351,3D
JVASP-14673,Ag4 O2,0.2751,0.5077,0.23260000000000003,jarvis_3d,jarvis,high,mp-353,3D
JVASP-14688,Si4 Pd4,0.001,0.0083,0.0073,jarvis_3d,jarvis,high,mp-389,3D
JVASP-14698,Al4 Nd2,0.0163,0.017,0.0007000000000000027,jarvis_3d,jarvis,high,mp-400,3D
JVASP-14701,U2 P4,0.0006,0.0021,0.0015,jarvis_3d,jarvis,high,mp-413,3D
JVASP-14704,Mn1 Rh1,0.0015,0.0052,0.0036999999999999997,jarvis_3d,jarvis,high,mp-417,3D
JVASP-14705,Yb1 B6,0.09,0.1159,0.025900000000000006,jarvis_3d,jarvis,high,mp-419,3D
JVASP-14707,Ni4 Dy2,0.007,0.0505,0.043500000000000004,jarvis_3d,jarvis,high,mp-421,3D
JVASP-14710,Co2 Se2,0.0048,0.0068,0.002,jarvis_3d,jarvis,high,mp-426,3D
JVASP-14714,Nb1 Ru1,0.002,0.0089,0.0069,jarvis_3d,jarvis,high,mp-432,3D
JVASP-14717,Sm1 Rh1,0.0116,0.0127,0.0011000000000000003,jarvis_3d,jarvis,high,mp-436,3D
JVASP-14718,Mg1 Au1,0.0013,0.0192,0.0179,jarvis_3d,jarvis,high,mp-437,3D
JVASP-14721,Co4 Nd2,0.0019,0.0022,0.00030000000000000014,jarvis_3d,jarvis,high,mp-445,3D
JVASP-14722,Cr6 Pt2,0.0037,0.0082,0.0045000000000000005,jarvis_3d,jarvis,high,mp-446,3D
JVASP-14724,N1 Co1,0.0074,0.0169,0.009499999999999998,jarvis_3d,jarvis,high,mp-448,3D
JVASP-14726,Nb1 B2,0.0016,0.0051,0.0035000000000000005,jarvis_3d,jarvis,high,mp-450,3D
JVASP-14727,B1 Zr1,0.0101,0.0275,0.0174,jarvis_3d,jarvis,high,mp-451,3D
JVASP-14730,Pr1 Zn1,0.005,0.008,0.003,jarvis_3d,jarvis,high,mp-460,3D
JVASP-14731,Se1 Ho1,0.0124,0.0137,0.0013000000000000008,jarvis_3d,jarvis,high,mp-464,3D
JVASP-14747,S1 Th1,0.0025,0.0092,0.006699999999999999,jarvis_3d,jarvis,high,mp-503,3D
JVASP-14751,Ge2 Pr2,0.0006,0.0051,0.0045000000000000005,jarvis_3d,jarvis,high,mp-511,3D
JVASP-14755,Ta3 Si6,0.0041,0.0052,0.0010999999999999994,jarvis_3d,jarvis,high,mp-517,3D
JVASP-14760,Ca1 Tl3,0.002,0.0056,0.0036,jarvis_3d,jarvis,high,mp-526,3D
JVASP-14763,Fe4 N1,0.008,0.0086,0.0005999999999999998,jarvis_3d,jarvis,high,mp-535,3D
JVASP-14766,Ca2 Ag2,0.0009,0.0032,0.0023,jarvis_3d,jarvis,high,mp-538,3D
JVASP-14768,Sc2 Fe4,0.0018,0.002,0.0002000000000000001,jarvis_3d,jarvis,high,mp-540,3D
JVASP-14770,Sr1 Hg1,0.0075,0.0131,0.005600000000000001,jarvis_3d,jarvis,high,mp-542,3D
JVASP-14772,Ti2 S2,0.0059,0.0213,0.0154,jarvis_3d,jarvis,high,mp-545,3D
JVASP-14773,Rh4 Ho2,0.0057,0.0119,0.006200000000000001,jarvis_3d,jarvis,high,mp-546,3D
JVASP-14774,Cr4 Nb2,0.0039,0.0166,0.0127,jarvis_3d,jarvis,high,mp-548,3D
JVASP-14783,Tm1 Au2,0.001,0.0061,0.0051,jarvis_3d,jarvis,high,mp-560,3D
JVASP-14785,Rh2 Sn4,0.0014,0.0019,0.0005,jarvis_3d,jarvis,high,mp-565,3D
JVASP-14789,Te1 Nd1,0.0021,0.0046,0.0025,jarvis_3d,jarvis,high,mp-570,3D
JVASP-14792,Co2 Ta4,0.0003,0.0012,0.0009,jarvis_3d,jarvis,high,mp-574,3D
JVASP-14798,Mn1 B2,0.0036,0.006,0.0024000000000000002,jarvis_3d,jarvis,high,mp-585,3D
JVASP-14805,P1 Pr1,0.0546,0.2459,0.1913,jarvis_3d,jarvis,high,mp-601,3D
JVASP-14806,Be4 Ag2,0.0052,0.0143,0.0091,jarvis_3d,jarvis,high,mp-603,3D
JVASP-20062,Pr2 Pt4,0.0013,0.0261,0.024800000000000003,jarvis_3d,jarvis,high,mp-1061,3D
JVASP-20064,Sb1 La1,0.0674,0.2178,0.15039999999999998,jarvis_3d,jarvis,high,mp-1065,3D
JVASP-20065,Si4 Hf2,0.0034,0.0095,0.0060999999999999995,jarvis_3d,jarvis,high,mp-1069,3D
JVASP-20068,B4 Ru2,0.0021,0.0038,0.0017000000000000001,jarvis_3d,jarvis,high,mp-1077,3D
JVASP-20070,V1 Ir3,0.0061,0.0137,0.0076,jarvis_3d,jarvis,high,mp-1082,3D
JVASP-20072,Os4 U2,0.009,0.011,0.002,jarvis_3d,jarvis,high,mp-1085,3D
JVASP-20073,C1 Ta1,0.003,0.0118,0.008799999999999999,jarvis_3d,jarvis,high,mp-1086,3D
JVASP-20074,Ga4 Yb1,0.0033,0.0071,0.0038000000000000004,jarvis_3d,jarvis,high,mp-1088,3D
JVASP-20081,As1 Tm1,0.1392,0.3206,0.1814,jarvis_3d,jarvis,high,mp-1101,3D
JVASP-20082,Ta1 B2,0.0071,0.0117,0.0046,jarvis_3d,jarvis,high,mp-1108,3D
JVASP-20084,B2 W4,0.0018,0.0039,0.0021,jarvis_3d,jarvis,high,mp-1113,3D
JVASP-20088,S1 Hg1,0.5194,0.6292,0.10980000000000001,jarvis_3d,jarvis,high,mp-1123,3D
JVASP-20089,Sm2 Pt4,0.0046,0.0072,0.0026,jarvis_3d,jarvis,high,mp-1127,3D
JVASP-20092,O1 Cd1,0.8394,1.3064,0.46699999999999997,jarvis_3d,jarvis,high,mp-1132,3D
JVASP-20095,P1 Er1,0.135,0.3154,0.1804,jarvis_3d,jarvis,high,mp-1144,3D
JVASP-20098,Ti1 Rh3,0.0041,0.0051,0.001,jarvis_3d,jarvis,high,mp-1152,3D
JVASP-20104,C1 Th1,0.0099,0.1095,0.0996,jarvis_3d,jarvis,high,mp-1164,3D
JVASP-20106,Mg1 Rh1,0.0013,0.007,0.0057,jarvis_3d,jarvis,high,mp-1172,3D
JVASP-20107,Mg1 Sc1,0.064,0.1148,0.0508,jarvis_3d,jarvis,high,mp-1174,3D
JVASP-21521,Na12 S14 Sn4,2.0226,3.4862,1.4636,jarvis_3d,jarvis,high,mp-4907,3D
JVASP-21525,Rb6 Zn6 F18,4.3724,6.7454,2.373,jarvis_3d,jarvis,high,mp-4975,3D