material_id,formula,pbe_bandgap,hse_bandgap,bandgap_correction,dataset,data_source,confidence,mpid,dimensionality
JVASP-21527,Tl8 As8 S16,1.5814,2.1563,0.5749,jarvis_3d,jarvis,high,mp-4988,3D
JVASP-21529,Mg6 B4 O12,5.6937,7.5405,1.8468,jarvis_3d,jarvis,high,mp-5005,3D
JVASP-4690,Zn1 Re2 O8,3.8641,4.4633,0.5992000000000002,jarvis_3d,jarvis,high,mp-10326,3D
JVASP-4828,O8 Al2 P2,5.4384,7.0541,1.6157000000000004,jarvis_3d,jarvis,high,mp-13024,3D
JVASP-4864,Ba4 B4 O4 F12,6.377,8.1132,1.736200000000001,jarvis_3d,jarvis,high,mp-13680,3D
JVASP-5221,W3 Cl18,1.3924,2.0215,0.6291,jarvis_3d,jarvis,high,mp-23178,3D
JVASP-5341,F13 Na5 Zr2,5.7642,6.2268,0.4626000000000001,jarvis_3d,jarvis,high,mp-27391,3D
JVASP-4204,Br16 Pd8,0.0243,0.6206,0.5963,jarvis_3d,jarvis,high,mp-27857,3D
JVASP-5425,O12 Cl4 Ag4,2.4976,4.1749,1.6773000000000002,jarvis_3d,jarvis,high,mp-27941,3D
JVASP-5464,Ca1 Au2 F12,1.6373,1.7977,0.1604000000000001,jarvis_3d,jarvis,high,mp-28153,3D
JVASP-5488,O16 Zn6 Ta4,3.7391,5.1696,1.4304999999999999,jarvis_3d,jarvis,high,mp-28251,3D
JVASP-5629,Ta6 Se2 I14,0.0303,0.8774,0.8471,jarvis_3d,jarvis,high,mp-29116,3D
JVASP-4621,Hg4 Se4 O12,2.3066,3.4727,1.1661000000000001,jarvis_3d,jarvis,high,mp-9228,3D
JVASP-43187,Li2 V2 Fe2 O8,0.0112,0.0158,0.004600000000000002,jarvis_3d,jarvis,high,mp-775175,3D
JVASP-59283,Al8 Si4 O20,5.3342,6.8677,1.5335,jarvis_3d,jarvis,high,mp-4934,3D
JVASP-59285,Mg8 Si8 O24,4.9585,6.997,2.0385,jarvis_3d,jarvis,high,mp-5026,3D
JVASP-59297,Sr12 Si4 O20,4.23,6.0176,1.7875999999999994,jarvis_3d,jarvis,high,mp-5487,3D
JVASP-59311,Ba6 Ti6 O18,1.7534,2.1214,0.3679999999999999,jarvis_3d,jarvis,high,mp-5933,3D
JVASP-59409,Zn4 Bi4 As4 O20,2.882,3.883,1.001,jarvis_3d,jarvis,high,mvc-5533,3D
JVASP-20215,Sr6 P28,1.7266,2.1699,0.44330000000000025,jarvis_3d,jarvis,high,mp-1853,3D
JVASP-20757,B30 Na2,0.1307,0.6089,0.47819999999999996,jarvis_3d,jarvis,high,mp-2315,3D
JVASP-20928,Sm4 P4 O16,5.8781,7.6961,1.8180000000000005,jarvis_3d,jarvis,high,mp-3831,3D
JVASP-12045,Mg3 Si4 H2 O12,5.4395,7.8322,2.3927000000000005,jarvis_3d,jarvis,high,mp-696497,3D
JVASP-12168,Hg2 Cl4 O12,3.2886,4.9537,1.6651000000000002,jarvis_3d,jarvis,high,mp-761037,3D
JVASP-12170,W2 O4 F4,2.3446,3.4581,1.1135000000000002,jarvis_3d,jarvis,high,mp-765254,3D
JVASP-12053,Mn2 Co2 O8,0.0004,0.0014,0.001,jarvis_3d,jarvis,high,mp-771797,3D
JVASP-50984,Pr2 H6 O6,3.7531,6.3141,2.561,jarvis_3d,jarvis,high,mp-626361,3D
JVASP-50986,Nd2 H6 O6,3.7688,6.3368,2.568,jarvis_3d,jarvis,high,mp-626369,3D
JVASP-50995,Na2 H2 O2,3.4917,6.4268,2.9351000000000003,jarvis_3d,jarvis,high,mp-626506,3D
JVASP-50997,H12 N4 O4,3.8302,6.2519,2.4217,jarvis_3d,jarvis,high,mp-626534,3D
JVASP-51002,Mo2 H4 O8,3.0425,3.6078,0.5653000000000001,jarvis_3d,jarvis,high,mp-626577,3D
JVASP-51003,Mo2 H4 O8,2.4765,3.018,0.5414999999999996,jarvis_3d,jarvis,high,mp-626582,3D
JVASP-51004,Mo2 H4 O8,2.606,3.1798,0.5738000000000003,jarvis_3d,jarvis,high,mp-626586,3D
JVASP-51007,Rb2 H2 O2,3.9139,5.9773,2.0633999999999997,jarvis_3d,jarvis,high,mp-626620,3D
JVASP-51009,Ca1 H2 O2,3.9599,6.7585,2.7985999999999995,jarvis_3d,jarvis,high,mp-626643,3D
JVASP-51010,Ca1 H2 O2,4.4646,6.939,2.4744,jarvis_3d,jarvis,high,mp-626644,3D
JVASP-51014,Cr4 H4 O8,0.0024,0.0046,0.0022,jarvis_3d,jarvis,high,mp-626703,3D
JVASP-51015,K2 H2 O2,4.1473,6.8163,2.6689999999999996,jarvis_3d,jarvis,high,mp-626716,3D
JVASP-51016,Ba2 H8 O6,4.4449,6.1835,1.7386000000000008,jarvis_3d,jarvis,high,mp-626720,3D
JVASP-51017,Rb2 H2 O2,3.9139,5.9756,2.0617,jarvis_3d,jarvis,high,mp-626721,3D
JVASP-51019,Ba2 H8 O6,4.367,6.7474,2.3804,jarvis_3d,jarvis,high,mp-626726,3D
JVASP-51020,Sr2 H8 O6,4.5454,6.8554,2.3100000000000005,jarvis_3d,jarvis,high,mp-626727,3D
JVASP-51021,Ga4 H12 O12,4.1302,6.0419,1.9116999999999997,jarvis_3d,jarvis,high,mp-626729,3D
JVASP-51022,Ba2 H8 O6,4.636,7.0722,2.4361999999999995,jarvis_3d,jarvis,high,mp-626735,3D
JVASP-51023,Sr2 H8 O6,4.5457,7.3225,2.7767999999999997,jarvis_3d,jarvis,high,mp-626750,3D
JVASP-51024,Sr2 H8 O6,4.5367,6.8963,2.3596000000000004,jarvis_3d,jarvis,high,mp-626755,3D
JVASP-51025,Na4 H4 O4,3.7333,6.4799,2.7466,jarvis_3d,jarvis,high,mp-626778,3D
JVASP-51026,K2 H2 O2,4.144,6.9552,2.8111999999999995,jarvis_3d,jarvis,high,mp-626785,3D
JVASP-51034,U2 H4 O8,1.9678,2.0309,0.06309999999999993,jarvis_3d,jarvis,high,mp-626876,3D
JVASP-51035,Ca1 H2 O2,4.4643,6.941,2.4767,jarvis_3d,jarvis,high,mp-626878,3D
JVASP-51053,Rb2 Pd1 I6,0.0426,0.3928,0.35019999999999996,jarvis_3d,jarvis,high,mp-628606,3D
JVASP-51060,Sr2 Al4 Cl16,5.3291,7.1598,1.8306999999999993,jarvis_3d,jarvis,high,mp-628726,3D
JVASP-51068,Fe1 Ni1 N1,0.0012,0.0061,0.004900000000000001,jarvis_3d,jarvis,high,mp-629397,3D
JVASP-51070,B1 C2 N1,2.0495,2.8639,0.8144,jarvis_3d,jarvis,high,mp-629458,3D
JVASP-51076,In4 S4,1.0157,1.8009,0.7851999999999999,jarvis_3d,jarvis,high,mp-630528,3D
JVASP-51093,K1 Mn1 Ru1,0.0287,0.0569,0.0282,jarvis_3d,jarvis,high,mp-631254,3D
JVASP-51095,Fe1 Ni1 Mo1,0.0027,0.0227,0.02,jarvis_3d,jarvis,high,mp-631256,3D
JVASP-51100,K1 Fe1 P1,0.0125,0.0266,0.014099999999999998,jarvis_3d,jarvis,high,mp-631274,3D
JVASP-51101,Sr1 Cr1 W2,0.0035,0.0281,0.0246,jarvis_3d,jarvis,high,mp-631277,3D
JVASP-51110,In1 Re1 Ge1,0.0131,0.0132,9.99999999999994e-05,jarvis_3d,jarvis,high,mp-631303,3D
JVASP-51116,Ir1 Os1 W1,0.0166,0.0217,0.0051,jarvis_3d,jarvis,high,mp-631311,3D
JVASP-51134,Mg1 Ta1 Zn1,0.018,0.0298,0.011800000000000001,jarvis_3d,jarvis,high,mp-631335,3D
JVASP-51136,Na1 Ta1 Ni1,0.0058,0.0059,0.00010000000000000026,jarvis_3d,jarvis,high,mp-631337,3D
JVASP-51140,Mn1 Tc1 Pd1,0.006,0.0131,0.0071,jarvis_3d,jarvis,high,mp-631342,3D
JVASP-51152,Sr1 Zr2 Nb1,0.0054,0.0058,0.0003999999999999993,jarvis_3d,jarvis,high,mp-631361,3D
JVASP-51153,Si1 Te2 Os1,0.0078,0.0234,0.015600000000000001,jarvis_3d,jarvis,high,mp-631362,3D
JVASP-51165,Te1 Ru1 Se1,0.0085,0.0189,0.0104,jarvis_3d,jarvis,high,mp-631381,3D
JVASP-51170,Sn1 Ru1 W1,0.0096,0.0436,0.034,jarvis_3d,jarvis,high,mp-631387,3D
JVASP-51175,Ca1 Zr1 Pd1,0.0039,0.021,0.0171,jarvis_3d,jarvis,high,mp-631394,3D
JVASP-51181,Cr1 Ir1 Ru1,0.0052,0.0173,0.0121,jarvis_3d,jarvis,high,mp-631404,3D
JVASP-51183,Sc1 Tl2 W1,0.0146,0.0182,0.0036000000000000008,jarvis_3d,jarvis,high,mp-631406,3D
JVASP-51206,Nb1 Bi2 Mo1,0.0048,0.012,0.007200000000000001,jarvis_3d,jarvis,high,mp-631441,3D
JVASP-51211,Nb1 Cr1 W1,0.002,0.0027,0.0007000000000000001,jarvis_3d,jarvis,high,mp-631452,3D
JVASP-51218,K1 Sc2 Co1,0.002,0.0184,0.016399999999999998,jarvis_3d,jarvis,high,mp-631466,3D
JVASP-51222,In1 Fe1 As1,0.0145,0.018,0.003499999999999998,jarvis_3d,jarvis,high,mp-631472,3D
JVASP-51223,K1 Ti2 Bi1,0.0084,0.0099,0.0015000000000000013,jarvis_3d,jarvis,high,mp-631473,3D
JVASP-51230,Bi1 Mo1 Rh1,0.0005,0.0046,0.0040999999999999995,jarvis_3d,jarvis,high,mp-631482,3D
JVASP-51243,Cr1 Ni2 Hg1,0.0039,0.0179,0.013999999999999999,jarvis_3d,jarvis,high,mp-631502,3D
JVASP-51245,Ba1 Si1 Tc2,0.0244,0.0434,0.019,jarvis_3d,jarvis,high,mp-631504,3D
JVASP-51260,Tl1 B1 Cl2,0.7992,1.2163,0.4170999999999999,jarvis_3d,jarvis,high,mp-631519,3D
JVASP-51277,K1 B1 Ir2,0.0112,0.0204,0.009200000000000002,jarvis_3d,jarvis,high,mp-631536,3D
JVASP-51286,Li1 B1 Br2,0.7003,0.9182,0.21789999999999998,jarvis_3d,jarvis,high,mp-631545,3D
JVASP-51302,Zr1 Ag1 Mo1,0.022,0.0347,0.012700000000000003,jarvis_3d,jarvis,high,mp-631561,3D
JVASP-51309,Al1 Ag1 B1,0.005,0.0066,0.0015999999999999999,jarvis_3d,jarvis,high,mp-631568,3D
JVASP-51333,In1 Co1 Si2,0.0063,0.0141,0.0078,jarvis_3d,jarvis,high,mp-631694,3D
JVASP-51338,Fe1 Pb1 W2,0.0218,0.0713,0.0495,jarvis_3d,jarvis,high,mp-631895,3D
JVASP-51343,H2 Br2,4.6646,6.0261,1.3614999999999995,jarvis_3d,jarvis,high,mp-632229,3D
JVASP-51344,Na1 H1 F2,7.1055,11.844,4.738499999999999,jarvis_3d,jarvis,high,mp-632282,3D
JVASP-51348,Na4 H8 N4,2.0593,4.6126,2.5532999999999997,jarvis_3d,jarvis,high,mp-632394,3D
JVASP-51350,Li2 H2 O4,0.0017,0.002,0.00030000000000000014,jarvis_3d,jarvis,high,mp-632417,3D
JVASP-51352,Ag3 S1 I1,0.661,1.5751,0.9140999999999999,jarvis_3d,jarvis,high,mp-632480,3D
JVASP-51358,Tl1 In1 S2,0.1431,0.9331,0.79,jarvis_3d,jarvis,high,mp-632539,3D
JVASP-51361,Ho6 H18,0.2318,1.2468,1.015,jarvis_3d,jarvis,high,mp-632656,3D
JVASP-51362,Yb4 H8,3.164,5.0436,1.8795999999999995,jarvis_3d,jarvis,high,mp-632667,3D
JVASP-51369,In2 H2 O4,2.0765,3.8603,1.7838000000000003,jarvis_3d,jarvis,high,mp-632711,3D
JVASP-51372,H8 N4 O6,3.0811,4.295,1.2138999999999998,jarvis_3d,jarvis,high,mp-632734,3D
JVASP-51374,Na2 H6 Pt1 O6,2.5772,2.9484,0.3712,jarvis_3d,jarvis,high,mp-632760,3D
JVASP-51385,Na1 Te1 H6 O6 F1,3.6677,4.8988,1.2310999999999996,jarvis_3d,jarvis,high,mp-633158,3D
JVASP-51392,H1 Cl1,2.585,2.6389,0.05390000000000006,jarvis_3d,jarvis,high,mp-634101,3D
JVASP-51394,Cd4 H4 S2 O12,2.889,5.0901,2.2011,jarvis_3d,jarvis,high,mp-634113,3D
JVASP-51395,Ga4 H4 O8,3.5782,5.3253,1.7471000000000005,jarvis_3d,jarvis,high,mp-634326,3D
JVASP-51397,O7 V2 Zn2,2.0413,2.4588,0.4175,jarvis_3d,jarvis,high,mp-634381,3D
JVASP-51398,Na1 N3,4.027,5.2723,1.2453000000000003,jarvis_3d,jarvis,high,mp-634410,3D
JVASP-51399,Na2 Ca2 Si2 H2 O8,4.8121,7.4549,2.6428000000000003,jarvis_3d,jarvis,high,mp-634418,3D
JVASP-51400,H8 N4 O6,3.0871,4.3154,1.2283000000000004,jarvis_3d,jarvis,high,mp-634429,3D
JVASP-51406,Na2 H2 S2,3.3978,5.1656,1.7678000000000003,jarvis_3d,jarvis,high,mp-634657,3D
JVASP-51407,K2 H2 S2,3.4429,5.4113,1.9684,jarvis_3d,jarvis,high,mp-634676,3D
JVASP-51409,Yb1 H2,0.7176,3.1502,2.4326,jarvis_3d,jarvis,high,mp-634751,3D
JVASP-51410,Sc1 F3,4.8632,6.1091,1.2458999999999998,jarvis_3d,jarvis,high,mp-634805,3D
JVASP-51411,H8 O4,5.2344,9.8074,4.5729999999999995,jarvis_3d,jarvis,high,mp-634812,3D
JVASP-51421,Tb2 O2 F2,3.2774,6.4081,3.1307,jarvis_3d,jarvis,high,mp-634979,3D
JVASP-51427,Na1 Y2 In1,0.0139,0.0435,0.029599999999999998,jarvis_3d,jarvis,high,mp-635327,3D
JVASP-51428,Ca2 P1 I1,1.6024,2.1562,0.5538000000000001,jarvis_3d,jarvis,high,mp-635393,3D
JVASP-51430,Al2 F6,7.7164,11.141,3.4246,jarvis_3d,jarvis,high,mp-635425,3D
JVASP-51436,Ti2 Zn2 O6,3.1213,3.6532,0.5318999999999998,jarvis_3d,jarvis,high,mp-635713,3D
JVASP-51442,Ga1 Fe2 Co1,0.013,0.0201,0.0071,jarvis_3d,jarvis,high,mp-636212,3D
JVASP-51448,Nd3 Ga1 N1,0.0252,0.0296,0.004400000000000001,jarvis_3d,jarvis,high,mp-636273,3D
JVASP-51460,Ga12 Fe4,0.0133,0.5385,0.5252,jarvis_3d,jarvis,high,mp-636368,3D
JVASP-51478,Pb6 O8,1.0996,1.7273,0.6277000000000001,jarvis_3d,jarvis,high,mp-636813,3D
JVASP-51552,O4 K3 V1,3.6622,4.1369,0.4746999999999999,jarvis_3d,jarvis,high,mp-639402,3D
JVASP-51568,Hf1 In1 Ni2,0.0187,0.0412,0.0225,jarvis_3d,jarvis,high,mp-640024,3D
JVASP-51574,Rb8 Cu4 Cl12,2.2513,3.2584,1.0070999999999999,jarvis_3d,jarvis,high,mp-640053,3D
JVASP-51609,Na4 V4 Zn2 O14,3.0666,3.3053,0.2386999999999997,jarvis_3d,jarvis,high,mp-640807,3D
JVASP-51629,Pb2 W2 O8,3.3023,3.9378,0.6355000000000004,jarvis_3d,jarvis,high,mp-641365,3D
JVASP-51636,Nd6 Cu2 Si2 Se14,1.4588,1.9162,0.4573999999999998,jarvis_3d,jarvis,high,mp-641534,3D
JVASP-51637,Si12 N16,3.7815,4.9488,1.1673000000000004,jarvis_3d,jarvis,high,mp-641539,3D
JVASP-51662,Al4 O6,4.9266,6.0001,1.0735000000000001,jarvis_3d,jarvis,high,mp-642363,3D
JVASP-51668,Ba2 P4 H8 O8,5.2406,7.5911,2.3505000000000003,jarvis_3d,jarvis,high,mp-642646,3D
JVASP-51669,K2 P2 H4 O4,5.3245,7.6892,2.3647,jarvis_3d,jarvis,high,mp-642648,3D
JVASP-51670,Ba2 H4 O6,0.0014,0.0213,0.0199,jarvis_3d,jarvis,high,mp-642649,3D
JVASP-51672,Ba2 H4 O6,3.0088,4.6231,1.6143,jarvis_3d,jarvis,high,mp-642653,3D
JVASP-51673,Sr2 H4 O6,3.4694,4.9986,1.5292,jarvis_3d,jarvis,high,mp-642654,3D
JVASP-51675,Mg4 Co2 H10,0.2064,0.2078,0.0014000000000000123,jarvis_3d,jarvis,high,mp-642660,3D
JVASP-51677,Sr4 H8 Cl8 O4,4.3373,5.6006,1.2633,jarvis_3d,jarvis,high,mp-642662,3D
JVASP-51680,Ca2 H2 Cl2 O2,5.6219,7.8633,2.2413999999999996,jarvis_3d,jarvis,high,mp-642725,3D
JVASP-51682,Ce1 H3 C3 O6,0.0028,2.9256,2.9228,jarvis_3d,jarvis,high,mp-642731,3D
JVASP-51683,Rb4 H8 Pt2,3.2986,3.8756,0.577,jarvis_3d,jarvis,high,mp-642735,3D
JVASP-51684,K6 H10 Pd2,2.9167,3.2186,0.30189999999999984,jarvis_3d,jarvis,high,mp-642736,3D
JVASP-51695,K4 H4 O4,4.1388,6.9563,2.8175,jarvis_3d,jarvis,high,mp-642817,3D
JVASP-51696,K6 H10 Pt2,3.0864,4.2636,1.1772000000000005,jarvis_3d,jarvis,high,mp-642821,3D
JVASP-51697,Ca4 C8,2.4901,3.0348,0.5447000000000002,jarvis_3d,jarvis,high,mp-642822,3D
JVASP-51700,Rb2 P2 H4 O8,5.7734,8.7526,2.9791999999999996,jarvis_3d,jarvis,high,mp-642831,3D
JVASP-51701,Ba2 H10 Cl2 O6,5.2219,6.8007,1.5788000000000002,jarvis_3d,jarvis,high,mp-642834,3D
JVASP-51702,Ba2 H10 Br2 O6,5.0809,6.5932,1.5123000000000006,jarvis_3d,jarvis,high,mp-642844,3D
JVASP-51703,Rb6 H10 Pt2,2.6232,3.9864,1.3632,jarvis_3d,jarvis,high,mp-642845,3D
JVASP-51706,Tb1 H3 C3 O6,4.0418,6.0753,2.0335,jarvis_3d,jarvis,high,mp-642991,3D
JVASP-51707,Li8 H12 Os2,2.7436,3.1008,0.3572000000000002,jarvis_3d,jarvis,high,mp-642996,3D
JVASP-51708,Tm1 H3 C3 O6,3.9601,6.0228,2.0627,jarvis_3d,jarvis,high,mp-642999,3D
JVASP-51709,Na8 H12 Ru2,2.0224,2.4534,0.4309999999999996,jarvis_3d,jarvis,high,mp-643001,3D
JVASP-51710,Mg2 H6 Os1,3.4166,3.6506,0.23399999999999999,jarvis_3d,jarvis,high,mp-643002,3D
JVASP-51714,Sr2 Mg2 H8,3.0501,4.4419,1.3918000000000004,jarvis_3d,jarvis,high,mp-643009,3D
JVASP-51716,Rb6 H10 Pd2,2.6369,3.1559,0.5190000000000001,jarvis_3d,jarvis,high,mp-643022,3D
JVASP-51717,Mg4 H8 Ru2,0.9858,1.1144,0.12860000000000005,jarvis_3d,jarvis,high,mp-643023,3D
JVASP-51718,Sr2 H8 Cl4 O4,5.3813,7.7286,2.3472999999999997,jarvis_3d,jarvis,high,mp-643026,3D
JVASP-51719,K1 P1 H2 S1 O3,4.796,6.9737,2.1776999999999997,jarvis_3d,jarvis,high,mp-643033,3D
JVASP-51721,Rb2 H2 O2,3.4814,5.7207,2.2393,jarvis_3d,jarvis,high,mp-643043,3D
JVASP-51722,Ba3 H12 Ir2,3.092,3.4337,0.3416999999999999,jarvis_3d,jarvis,high,mp-643047,3D
JVASP-51723,Mg6 Re2 H14,2.6867,3.2199,0.5331999999999999,jarvis_3d,jarvis,high,mp-643061,3D
JVASP-51724,H8 I2 N2,3.7918,5.0039,1.2121,jarvis_3d,jarvis,high,mp-643062,3D
JVASP-51725,Zn2 H4 S2 O10,4.7309,6.77,2.0390999999999995,jarvis_3d,jarvis,high,mp-643066,3D
JVASP-51728,Ca4 Mg3 H14,3.3651,4.6181,1.2530000000000001,jarvis_3d,jarvis,high,mp-643070,3D
JVASP-51734,Yb4 Mg3 H14,3.2882,5.174,1.8858000000000006,jarvis_3d,jarvis,high,mp-643108,3D
JVASP-51740,Yb4 Mg4 Ni4 H16,1.9595,2.2823,0.3228000000000002,jarvis_3d,jarvis,high,mp-643246,3D
JVASP-51741,Na4 Al2 H8 Cl2 O8,4.7583,7.1341,2.3758,jarvis_3d,jarvis,high,mp-643248,3D
JVASP-51744,Na2 H4 Pd1,2.585,2.6984,0.11339999999999995,jarvis_3d,jarvis,high,mp-643260,3D
JVASP-51745,Na3 V1 H6 O7,3.891,4.2747,0.38370000000000015,jarvis_3d,jarvis,high,mp-643263,3D
JVASP-51747,K6 Zn2 H10,3.8627,5.772,1.9093000000000004,jarvis_3d,jarvis,high,mp-643270,3D
JVASP-51763,Ca4 H8 O8,4.7106,6.9635,2.2528999999999995,jarvis_3d,jarvis,high,mp-643392,3D
JVASP-51764,Na1 In1 H8 N2 F6,5.3489,7.7149,2.3659999999999997,jarvis_3d,jarvis,high,mp-643394,3D
JVASP-51765,H8 Pd1 N2 Cl6,1.0855,1.811,0.7255,jarvis_3d,jarvis,high,mp-643397,3D
JVASP-51768,Ag1 H4 W1 S4 N1,1.6886,1.9879,0.2992999999999999,jarvis_3d,jarvis,high,mp-643431,3D
JVASP-51802,Rb2 P2 H4 O8,5.4942,8.2503,2.756099999999999,jarvis_3d,jarvis,high,mp-643791,3D
JVASP-51882,B4 N4,5.91,7.1356,1.2256,jarvis_3d,jarvis,high,mp-644751,3D
JVASP-51898,Tb6 B2 W2 O18,3.279,4.3036,1.0246000000000004,jarvis_3d,jarvis,high,mp-645218,3D
JVASP-51899,Dy6 B2 W2 O18,3.2725,4.3031,1.0305999999999997,jarvis_3d,jarvis,high,mp-645246,3D
JVASP-51901,Na4 C1 O4,3.761,6.9546,3.1936,jarvis_3d,jarvis,high,mp-645295,3D
JVASP-51902,Rb4 C1 O4,0.2143,1.7168,1.5025000000000002,jarvis_3d,jarvis,high,mp-645300,3D
JVASP-51906,Fe2 Cl6,0.006,0.0065,0.0004999999999999996,jarvis_3d,jarvis,high,mp-645418,3D
JVASP-52004,Ca4 Al4 H20,3.3468,4.5955,1.2487000000000004,jarvis_3d,jarvis,high,mp-654956,3D
JVASP-52006,Hg1 C2 S2 N2,2.0918,3.2326,1.1408,jarvis_3d,jarvis,high,mp-655275,3D
JVASP-54225,Si5 O10,5.4523,9.0945,3.6422,jarvis_3d,jarvis,high,mp-600001,3D
JVASP-54274,Pd1 O1,0.006,0.014,0.008,jarvis_3d,jarvis,high,mp-603251,3D
JVASP-54286,Mg4 Si4 O12,5.5426,7.2071,1.6644999999999994,jarvis_3d,jarvis,high,mp-603907,3D
JVASP-54370,Al4 Tl4 I16,3.3272,4.2038,0.8766000000000003,jarvis_3d,jarvis,high,mp-607829,3D
JVASP-54374,K2 Ge2 Pb2 O7,3.2424,4.5005,1.2580999999999998,jarvis_3d,jarvis,high,mp-608014,3D
JVASP-54379,Na4 Cl4 O12,5.6997,7.0193,1.3196000000000003,jarvis_3d,jarvis,high,mp-608156,3D
JVASP-54433,K2 Te2 O2 F6,4.2966,5.5941,1.2975000000000003,jarvis_3d,jarvis,high,mp-612946,3D
JVASP-54436,O8 Bi2 V2,2.7269,2.9349,0.20799999999999974,jarvis_3d,jarvis,high,mp-613172,3D
JVASP-54456,In2 Ag2 W4 O16,1.8922,2.2356,0.3433999999999997,jarvis_3d,jarvis,high,mp-614383,3D
JVASP-54457,Zr1 Zn1,0.0472,0.0778,0.030599999999999995,jarvis_3d,jarvis,high,mp-614444,3D
JVASP-54469,Y2 Cl2 O2,1.8926,3.1657,1.2731000000000001,jarvis_3d,jarvis,high,mp-614918,3D
JVASP-54472,Pb2 Cl4 O8,1.1818,2.6796,1.4978000000000002,jarvis_3d,jarvis,high,mp-615141,3D
JVASP-54486,Ba1 Co2 P2 O8,0.0015,0.002,0.0005,jarvis_3d,jarvis,high,mp-616019,3D
JVASP-54498,Na8 Zn4 Cl16,4.6214,7.1933,2.5718999999999994,jarvis_3d,jarvis,high,mp-616461,3D
JVASP-54507,Rb2 Pb2 I2 O12,1.4202,2.514,1.0937999999999999,jarvis_3d,jarvis,high,mp-616564,3D
JVASP-54542,Ba2 Al4 O8,4.0561,6.59,2.5339,jarvis_3d,jarvis,high,mp-619456,3D
JVASP-54566,Na4 Sr8 Al4 P12,0.2942,1.1383,0.8441000000000001,jarvis_3d,jarvis,high,mp-620652,3D
JVASP-54576,Tl2 Mo4 Cl14 O4,0.9007,1.0005,0.0998,jarvis_3d,jarvis,high,mp-621182,3D
JVASP-54581,Y1 Pb1 Au1,0.0357,0.1293,0.09359999999999999,jarvis_3d,jarvis,high,mp-621592,3D
JVASP-54582,Ag2 Pb4 Br10,1.9074,2.8493,0.9419,jarvis_3d,jarvis,high,mp-621612,3D
JVASP-54593,K8 Rb4 Bi4 Se12,2.0923,3.0189,0.9266000000000001,jarvis_3d,jarvis,high,mp-621964,3D
JVASP-54605,Ba4 Zn2 Ag4 Se4 O4,1.1474,2.2947,1.1473000000000002,jarvis_3d,jarvis,high,mp-622268,3D
JVASP-54621,Mn1 Te1 Pd1,0.0078,0.0163,0.008499999999999999,jarvis_3d,jarvis,high,mp-622980,3D
JVASP-54625,Ti1 Cd1 F6,4.3411,4.8607,0.5195999999999996,jarvis_3d,jarvis,high,mp-623024,3D
JVASP-54662,Ta2 O5,2.5193,3.8661,1.3468,jarvis_3d,jarvis,high,mp-624688,3D
JVASP-54667,Na1 H1 O1,3.7162,6.5414,2.8252,jarvis_3d,jarvis,high,mp-625051,3D
JVASP-54668,Na1 H1 O1,3.7162,6.5414,2.8252,jarvis_3d,jarvis,high,mp-625052,3D
JVASP-54670,Cd2 H4 O4,1.7984,3.9172,2.1188,jarvis_3d,jarvis,high,mp-625094,3D
JVASP-54676,Al4 H4 O8,6.0612,7.4243,1.3630999999999993,jarvis_3d,jarvis,high,mp-625152,3D
JVASP-54686,Nd2 H2 O4,4.1856,6.0837,1.8981000000000003,jarvis_3d,jarvis,high,mp-625359,3D
JVASP-54687,Lu2 H2 O4,4.3044,6.3329,2.0285,jarvis_3d,jarvis,high,mp-625367,3D
JVASP-54688,Lu2 H2 O4,4.3089,6.3368,2.0279,jarvis_3d,jarvis,high,mp-625370,3D
JVASP-54689,H4 N4 O4,3.0943,4.9186,1.8242999999999996,jarvis_3d,jarvis,high,mp-625377,3D
JVASP-54690,Lu4 H12 O12,5.0886,7.6984,2.609800000000001,jarvis_3d,jarvis,high,mp-625392,3D
JVASP-54692,Nd2 H6 O6,3.7678,6.3364,2.5686000000000004,jarvis_3d,jarvis,high,mp-625397,3D
JVASP-54693,Sm2 H6 O6,3.7575,6.1258,2.3683,jarvis_3d,jarvis,high,mp-625402,3D
JVASP-54694,Nd2 H6 O6,3.7691,6.3361,2.567,jarvis_3d,jarvis,high,mp-625403,3D
JVASP-54695,Al4 H4 O8,6.177,7.4993,1.3223000000000003,jarvis_3d,jarvis,high,mp-625404,3D
JVASP-54697,Sm2 H6 O6,3.7574,6.1261,2.3687,jarvis_3d,jarvis,high,mp-625409,3D
JVASP-54698,Mn4 H2 O8,0.0056,0.0172,0.0116,jarvis_3d,jarvis,high,mp-625414,3D
JVASP-54699,Tb2 H6 O6,3.7884,6.1304,2.3419999999999996,jarvis_3d,jarvis,high,mp-625415,3D
JVASP-54700,Tb2 H6 O6,3.7879,6.1299,2.342,jarvis_3d,jarvis,high,mp-625416,3D
JVASP-54701,H4 S2 O8,6.1628,8.0594,1.8966000000000003,jarvis_3d,jarvis,high,mp-625445,3D
JVASP-54702,Pr2 H6 O6,3.7552,6.3173,2.5621000000000005,jarvis_3d,jarvis,high,mp-625447,3D
JVASP-54703,Pr2 H6 O6,3.7536,6.3142,2.5605999999999995,jarvis_3d,jarvis,high,mp-625452,3D
JVASP-54704,Tm2 H6 O6,3.8224,6.1614,2.3390000000000004,jarvis_3d,jarvis,high,mp-625465,3D
JVASP-54706,Lu4 H12 O12,5.1106,7.7304,2.6198000000000006,jarvis_3d,jarvis,high,mp-625468,3D
JVASP-54707,Tm2 H6 O6,3.8218,6.1603,2.3385000000000002,jarvis_3d,jarvis,high,mp-625472,3D