material_id,formula,pbe_bandgap,hse_bandgap,bandgap_correction,dataset,data_source,confidence,mpid,dimensionality
JVASP-41878,Sc2 Pd1 Ru1,0.0108,0.029,0.0182,jarvis_3d,jarvis,high,mp-862370,3D
JVASP-41881,Sc2 S4,0.0342,0.5255,0.49129999999999996,jarvis_3d,jarvis,high,mp-862373,3D
JVASP-41890,Sc2 Ag1 Os1,0.01,0.015,0.004999999999999999,jarvis_3d,jarvis,high,mp-862431,3D
JVASP-41892,Ta1 Al1 Os2,0.0415,0.1093,0.0678,jarvis_3d,jarvis,high,mp-862445,3D
JVASP-41895,Ga1 Cu1 Rh2,0.0119,0.0543,0.0424,jarvis_3d,jarvis,high,mp-862485,3D
JVASP-41898,Li1 Er2 Al1,0.0224,0.0395,0.0171,jarvis_3d,jarvis,high,mp-862493,3D
JVASP-41902,Sc2 Al1 Ru1,0.0269,0.049,0.0221,jarvis_3d,jarvis,high,mp-862546,3D
JVASP-41903,Sc2 Al1 Zn1,0.0017,0.0089,0.0072,jarvis_3d,jarvis,high,mp-862548,3D
JVASP-41907,Li1 Y2 Al1,0.0428,0.0486,0.0058,jarvis_3d,jarvis,high,mp-862555,3D
JVASP-41909,Li1 Er2 Os1,0.0125,0.0237,0.011199999999999998,jarvis_3d,jarvis,high,mp-862558,3D
JVASP-41911,Sc1 Sb1 Ru2,0.0408,0.0823,0.041499999999999995,jarvis_3d,jarvis,high,mp-862561,3D
JVASP-41913,Sc2 Br4,0.0016,0.0052,0.0036,jarvis_3d,jarvis,high,mp-862565,3D
JVASP-41920,Sc1 Al1 Co2,0.0142,0.0295,0.015299999999999998,jarvis_3d,jarvis,high,mp-862602,3D
JVASP-41928,Er2 Ni1 Ru1,0.0024,0.0204,0.018000000000000002,jarvis_3d,jarvis,high,mp-862615,3D
JVASP-41930,Li1 Er1 In2,0.0061,0.05,0.0439,jarvis_3d,jarvis,high,mp-862619,3D
JVASP-41933,Be1 Ru2 W1,0.018,0.0341,0.0161,jarvis_3d,jarvis,high,mp-862622,3D
JVASP-41937,Li1 Ca2 Al1,0.0187,0.0194,0.0006999999999999992,jarvis_3d,jarvis,high,mp-862632,3D
JVASP-41938,Sc1 Sb1 Rh2,0.0374,0.0529,0.0155,jarvis_3d,jarvis,high,mp-862635,3D
JVASP-41948,Rb2 Zr2 O5,1.8848,3.4891,1.6043,jarvis_3d,jarvis,high,mp-862664,3D
JVASP-41956,Li1 Y2 Ru1,0.0379,0.0413,0.0034000000000000002,jarvis_3d,jarvis,high,mp-862673,3D
JVASP-41982,Al1 Zn1 Ir2,0.0046,0.0343,0.029699999999999997,jarvis_3d,jarvis,high,mp-862705,3D
JVASP-41989,Be3 Ir1,0.0021,0.0022,0.00010000000000000026,jarvis_3d,jarvis,high,mp-862714,3D
JVASP-42019,Sr2 Li1 Tl1,0.0346,0.0487,0.014100000000000001,jarvis_3d,jarvis,high,mp-862746,3D
JVASP-42021,Sm1 Al1 Ag2,0.0124,0.0143,0.0019000000000000006,jarvis_3d,jarvis,high,mp-862749,3D
JVASP-42024,Pr4 B4 S12,2.4984,3.1926,0.6941999999999999,jarvis_3d,jarvis,high,mp-862754,3D
JVASP-42047,Al1 Cr1 Ru2,0.0192,0.0194,0.00020000000000000226,jarvis_3d,jarvis,high,mp-862781,3D
JVASP-42051,Er2 Zn1 Ir1,0.0145,0.0189,0.004399999999999999,jarvis_3d,jarvis,high,mp-862789,3D
JVASP-42064,Pa1 Sn1 Pd2,0.0041,0.0329,0.0288,jarvis_3d,jarvis,high,mp-862822,3D
JVASP-42076,Pa1 Zn1 Ru2,0.0673,0.1255,0.0582,jarvis_3d,jarvis,high,mp-862843,3D
JVASP-42082,K2 P2 Au2 Se6,0.948,1.7882,0.8402000000000001,jarvis_3d,jarvis,high,mp-862850,3D
JVASP-42095,Pb2 Cl4,3.114,4.3027,1.1886999999999999,jarvis_3d,jarvis,high,mp-862871,3D
JVASP-45285,Ba3 Ti3 B2 O12,2.1716,2.3356,0.1639999999999997,jarvis_3d,jarvis,high,mp-11772,3D
JVASP-45292,Hg2 B8 O14,1.8268,3.6625,1.8357,jarvis_3d,jarvis,high,mp-12022,3D
JVASP-45329,Mg2 Au4 F16,2.0345,2.3993,0.36480000000000024,jarvis_3d,jarvis,high,mp-8708,3D
JVASP-45340,Y8 S8 O4,2.5674,3.2271,0.6597,jarvis_3d,jarvis,high,mp-8869,3D
JVASP-45372,Tb8 S12,0.2472,1.5036,1.2564,jarvis_3d,jarvis,high,mp-9323,3D
JVASP-45399,Sr4 P4 S12,3.1888,4.0708,0.8820000000000001,jarvis_3d,jarvis,high,mp-9788,3D
JVASP-45400,Ca4 P4 S12,3.128,3.8922,0.7641999999999998,jarvis_3d,jarvis,high,mp-9789,3D
JVASP-49166,Sn2 B8 O14,3.7536,4.9916,1.238,jarvis_3d,jarvis,high,mp-13252,3D
JVASP-49172,O12 Sc2 Ho6,4.5987,5.9411,1.3423999999999996,jarvis_3d,jarvis,high,mp-13840,3D
JVASP-49176,Sn4 P4 S12,1.9425,2.3769,0.4344000000000001,jarvis_3d,jarvis,high,mp-13923,3D
JVASP-49185,K4 Na8 Be4 O10,2.7695,5.7257,2.9562,jarvis_3d,jarvis,high,mp-14324,3D
JVASP-49192,Pr4 Be4 Ge2 O14,4.382,6.2775,1.8955000000000002,jarvis_3d,jarvis,high,mp-14415,3D
JVASP-49193,Sm4 Be4 Ge2 O14,4.5643,6.3959,1.8316,jarvis_3d,jarvis,high,mp-14416,3D
JVASP-49194,Er4 Be4 Ge2 O14,4.5871,6.4809,1.8937999999999997,jarvis_3d,jarvis,high,mp-14420,3D
JVASP-49202,Ti4 Cd4 O12,2.1425,2.5379,0.3954,jarvis_3d,jarvis,high,mp-14550,3D
JVASP-49222,Sm8 Se12,0.2382,0.9725,0.7343000000000001,jarvis_3d,jarvis,high,mp-15081,3D
JVASP-49227,K3 Nb3 B2 O12,1.9835,2.5075,0.5239999999999998,jarvis_3d,jarvis,high,mp-15248,3D
JVASP-49599,Ti4 Al4 O14,0.3703,1.4437,1.0734,jarvis_3d,jarvis,high,mvc-13511,3D
JVASP-49701,Al8 Bi4 S16,2.6423,3.2638,0.6214999999999997,jarvis_3d,jarvis,high,mvc-16098,3D
JVASP-28345,Ga2 N2,1.1634,2.3154,1.152,jarvis_3d,jarvis,high,mp-1007824,3D
JVASP-28348,V1 Te2,0.0035,0.0038,0.0002999999999999999,jarvis_3d,jarvis,high,mp-1008626,3D
JVASP-28349,Ti1 S2,0.0001,0.0008,0.0007,jarvis_3d,jarvis,high,mp-1008682,3D
JVASP-28353,Co1 Te2,0.0018,0.0049,0.0031,jarvis_3d,jarvis,high,mp-1009641,3D
JVASP-28356,Pb2 S2,0.274,1.0066,0.7325999999999999,jarvis_3d,jarvis,high,mp-1012435,3D
JVASP-28364,Cr3 N2,0.0001,0.0006,0.0004999999999999999,jarvis_3d,jarvis,high,mp-1014509,3D
JVASP-28366,In2 Se3,0.1922,0.7425,0.5503,jarvis_3d,jarvis,high,mp-1017565,3D
JVASP-28367,Mg2 Zn1 As2,1.0627,1.7372,0.6745000000000001,jarvis_3d,jarvis,high,mp-1017630,3D
JVASP-28369,Pb2 S2,1.2002,1.8727,0.6725000000000001,jarvis_3d,jarvis,high,mp-1018115,3D
JVASP-28370,V1 I2,0.004,0.0343,0.030299999999999997,jarvis_3d,jarvis,high,mp-1018138,3D
JVASP-28372,Ga2 P2,1.0632,1.651,0.5878000000000001,jarvis_3d,jarvis,high,mp-1018275,3D
JVASP-28374,C2 N4,2.0164,3.4738,1.4574000000000003,jarvis_3d,jarvis,high,mp-1018655,3D
JVASP-28377,Mo2 Se4,0.9418,1.3139,0.3721000000000001,jarvis_3d,jarvis,high,mp-1018807,3D
JVASP-28379,Mo2 S4,0.958,1.3644,0.4064000000000001,jarvis_3d,jarvis,high,mp-1018809,3D
JVASP-28381,Pd2 Cl4,0.1101,0.5016,0.39150000000000007,jarvis_3d,jarvis,high,mp-1018891,3D
JVASP-28383,C2 N4,4.7438,5.9486,1.2047999999999996,jarvis_3d,jarvis,high,mp-1019086,3D
JVASP-28387,Te4 W2,0.8919,1.0461,0.1542,jarvis_3d,jarvis,high,mp-1019322,3D
JVASP-28388,B2 S2 O9,7.1219,9.2893,2.1674000000000007,jarvis_3d,jarvis,high,mp-1019509,3D
JVASP-28390,K2 Mg2 Si2 O7,5.4765,7.2414,1.7649,jarvis_3d,jarvis,high,mp-1019779,3D
JVASP-28392,Si2 O4,5.1164,6.2428,1.1264000000000003,jarvis_3d,jarvis,high,mp-1021503,3D
JVASP-28393,Cd1 S1,0.8868,2.2803,1.3935,jarvis_3d,jarvis,high,mp-1021511,3D
JVASP-28395,Y1 Fe2 Bi2 Se2 O4,0.0026,0.0455,0.0429,jarvis_3d,jarvis,high,mp-1022730,3D
JVASP-28397,Si4 S4,0.1582,0.9587,0.8005,jarvis_3d,jarvis,high,mp-1023900,3D
JVASP-28399,W2 S4,0.945,1.7626,0.8176,jarvis_3d,jarvis,high,mp-1023925,3D
JVASP-28400,Te2 W1,1.2853,1.3508,0.06549999999999989,jarvis_3d,jarvis,high,mp-1023926,3D
JVASP-28402,Mo1 W1 Se4,1.1593,1.2874,0.1281000000000001,jarvis_3d,jarvis,high,mp-1023928,3D
JVASP-28403,W2 Se2 S2,0.7035,0.9703,0.26680000000000004,jarvis_3d,jarvis,high,mp-1023929,3D
JVASP-28407,W2 Se4,1.2188,1.7257,0.5068999999999999,jarvis_3d,jarvis,high,mp-1023933,3D
JVASP-28409,Te2 Mo1,1.2284,1.2292,0.0008000000000001339,jarvis_3d,jarvis,high,mp-1023935,3D
JVASP-28410,W1 Se2,1.3336,1.5869,0.2533000000000001,jarvis_3d,jarvis,high,mp-1023936,3D
JVASP-28413,Mo2 S4,1.2069,1.4715,0.26459999999999995,jarvis_3d,jarvis,high,mp-1023939,3D
JVASP-28416,Te4 W2,0.9517,1.0761,0.12440000000000007,jarvis_3d,jarvis,high,mp-1023942,3D
JVASP-28417,Te2 W2 Se2,0.1471,0.3517,0.2046,jarvis_3d,jarvis,high,mp-1023943,3D
JVASP-28422,Mo1 W1 Se2 S2,0.5842,0.923,0.3388,jarvis_3d,jarvis,high,mp-1023955,3D
JVASP-28430,Cd2 I2 Br2,2.0555,3.5558,1.5003000000000002,jarvis_3d,jarvis,high,mp-1025115,3D
JVASP-28434,Mn1 Nb2 S4,0.0121,0.0171,0.005000000000000001,jarvis_3d,jarvis,high,mp-1025312,3D
JVASP-28436,Cu2 W1 Se4,0.917,1.438,0.5209999999999999,jarvis_3d,jarvis,high,mp-1025340,3D
JVASP-28440,Yb2 Cl6,0.0127,2.5105,2.4978,jarvis_3d,jarvis,high,mp-1025400,3D
JVASP-28443,Ir2 I6,1.1785,1.459,0.28049999999999997,jarvis_3d,jarvis,high,mp-1025442,3D
JVASP-28445,Lu2 Te6,0.0019,0.0022,0.00030000000000000014,jarvis_3d,jarvis,high,mp-1025470,3D
JVASP-28449,Th2 Te6,0.0505,0.8977,0.8472000000000001,jarvis_3d,jarvis,high,mp-1025522,3D
JVASP-28452,W3 S6,0.8253,1.638,0.8126999999999999,jarvis_3d,jarvis,high,mp-1025571,3D
JVASP-28453,W3 Se6,1.1257,1.6884,0.5627,jarvis_3d,jarvis,high,mp-1025572,3D
JVASP-28454,Te6 W3,0.9654,1.0774,0.11199999999999988,jarvis_3d,jarvis,high,mp-1025573,3D
JVASP-28455,Te2 Mo1 W2 Se4,0.7377,0.8887,0.15100000000000002,jarvis_3d,jarvis,high,mp-1025574,3D
JVASP-28456,Mo1 W2 Se6,1.1396,1.3405,0.20090000000000008,jarvis_3d,jarvis,high,mp-1025575,3D
JVASP-28457,Te6 Mo3,1.135,1.1798,0.04479999999999995,jarvis_3d,jarvis,high,mp-1025576,3D
JVASP-28459,Te2 W3 Se2 S2,0.0418,0.884,0.8422000000000001,jarvis_3d,jarvis,high,mp-1025578,3D
JVASP-28460,Te2 Mo1 W2 Se4,0.1377,0.3659,0.22820000000000001,jarvis_3d,jarvis,high,mp-1025583,3D
JVASP-28461,W3 Se2 S4,0.6921,1.1208,0.42869999999999997,jarvis_3d,jarvis,high,mp-1025584,3D
JVASP-28462,Te4 Mo1 W2 Se2,0.1657,0.1909,0.0252,jarvis_3d,jarvis,high,mp-1025585,3D
JVASP-28463,Te2 W3 S4,0.0003,0.3103,0.31,jarvis_3d,jarvis,high,mp-1025586,3D
JVASP-28464,Te4 W3 S2,0.0075,0.1896,0.18209999999999998,jarvis_3d,jarvis,high,mp-1025587,3D
JVASP-28465,W3 Se4 S2,0.526,0.9479,0.42189999999999994,jarvis_3d,jarvis,high,mp-1025588,3D
JVASP-28466,Mo1 W2 Se4 S2,0.2885,0.4423,0.15380000000000005,jarvis_3d,jarvis,high,mp-1025589,3D
JVASP-28469,Te4 Mo2 W1 Se2,0.1657,0.1862,0.020500000000000018,jarvis_3d,jarvis,high,mp-1025626,3D
JVASP-28471,Te2 W3 Se2 S2,0.0042,0.2992,0.29500000000000004,jarvis_3d,jarvis,high,mp-1025637,3D
JVASP-28475,Te4 Mo2 W1 S2,0.0026,0.1489,0.1463,jarvis_3d,jarvis,high,mp-1025654,3D
JVASP-28476,Mo1 W2 Se4 S2,0.6055,0.9513,0.3458,jarvis_3d,jarvis,high,mp-1025656,3D
JVASP-28480,Te2 Mo2 W1 Se4,0.137,0.194,0.056999999999999995,jarvis_3d,jarvis,high,mp-1025668,3D
JVASP-28481,Te4 Mo2 W1 Se2,0.115,0.514,0.399,jarvis_3d,jarvis,high,mp-1025675,3D
JVASP-28482,Te6 Mo1 W2,0.8695,0.9431,0.0736,jarvis_3d,jarvis,high,mp-1025678,3D
JVASP-28493,Mo1 W2 Se2 S4,0.687,0.6891,0.0020999999999999908,jarvis_3d,jarvis,high,mp-1025716,3D
JVASP-28494,Te2 Mo1 W2 Se2 S2,0.0039,0.5005,0.49659999999999993,jarvis_3d,jarvis,high,mp-1025722,3D
JVASP-28498,Te4 Mo1 W2 Se2,0.1995,0.2822,0.0827,jarvis_3d,jarvis,high,mp-1025732,3D
JVASP-28501,Te4 Mo2 W1 S2,0.0877,0.1875,0.0998,jarvis_3d,jarvis,high,mp-1025743,3D
JVASP-28502,Te2 Mo1 W2 Se2 S2,0.0038,0.5116,0.5078,jarvis_3d,jarvis,high,mp-1025747,3D
JVASP-28503,Mo2 W1 Se4 S2,0.5455,1.1456,0.6001,jarvis_3d,jarvis,high,mp-1025748,3D
JVASP-28506,Te2 Mo1 W2 Se2 S2,0.0092,0.3293,0.3201,jarvis_3d,jarvis,high,mp-1025768,3D
JVASP-28512,Te4 Mo2 W1 Se2,0.2022,0.242,0.0398,jarvis_3d,jarvis,high,mp-1025781,3D
JVASP-28513,Mo1 W2 Se6,0.9856,1.3071,0.3214999999999999,jarvis_3d,jarvis,high,mp-1025787,3D
JVASP-28515,Te2 Mo1 W2 S4,0.0616,0.236,0.1744,jarvis_3d,jarvis,high,mp-1025806,3D
JVASP-28518,Mo1 W2 Se4 S2,0.4764,0.943,0.46659999999999996,jarvis_3d,jarvis,high,mp-1025816,3D
JVASP-28519,Mo3 Se4 S2,0.3821,0.5656,0.1835,jarvis_3d,jarvis,high,mp-1025819,3D
JVASP-28520,Mo1 W2 Se2 S4,0.5994,1.3306,0.7312,jarvis_3d,jarvis,high,mp-1025824,3D
JVASP-28527,Te2 Mo1 W2 Se2 S2,0.0096,0.5139,0.5043,jarvis_3d,jarvis,high,mp-1025856,3D
JVASP-28528,Mo2 W1 Se4 S2,0.2862,0.4287,0.14250000000000002,jarvis_3d,jarvis,high,mp-1025866,3D
JVASP-28529,Mo1 W2 Se4 S2,0.2885,0.5227,0.23420000000000007,jarvis_3d,jarvis,high,mp-1025870,3D
JVASP-28537,Te2 Mo1 W2 Se2 S2,0.0106,0.5033,0.49269999999999997,jarvis_3d,jarvis,high,mp-1025895,3D
JVASP-28539,Te2 Mo1 W2 S4,0.0066,0.255,0.2484,jarvis_3d,jarvis,high,mp-1025898,3D
JVASP-28541,Mo3 Se4 S2,0.382,0.3917,0.009699999999999986,jarvis_3d,jarvis,high,mp-1025906,3D
JVASP-28544,Mo1 W2 Se2 S4,0.6258,0.6818,0.05599999999999994,jarvis_3d,jarvis,high,mp-1025917,3D
JVASP-28545,Mo1 W2 Se2 S4,0.6181,0.6338,0.015700000000000047,jarvis_3d,jarvis,high,mp-1025919,3D
JVASP-28548,Te2 Mo2 W1 S4,0.0045,0.0248,0.0203,jarvis_3d,jarvis,high,mp-1025923,3D
JVASP-28551,Te2 Mo2 W1 S4,0.0015,0.1343,0.1328,jarvis_3d,jarvis,high,mp-1025926,3D
JVASP-28554,Te2 Mo2 W1 Se2 S2,0.2108,0.2368,0.026000000000000023,jarvis_3d,jarvis,high,mp-1025933,3D
JVASP-28556,Te4 Mo3 S2,0.1637,0.1942,0.0305,jarvis_3d,jarvis,high,mp-1025937,3D
JVASP-28557,Mo2 W1 Se2 S4,0.6373,0.8646,0.22730000000000006,jarvis_3d,jarvis,high,mp-1025941,3D
JVASP-28561,Te2 Mo3 S4,0.0809,0.1913,0.1104,jarvis_3d,jarvis,high,mp-1025986,3D
JVASP-28566,Te2 Mo3 S4,0.0617,0.1791,0.1174,jarvis_3d,jarvis,high,mp-1026020,3D
JVASP-28570,Te2 W3 Se2 S2,0.0031,0.2956,0.2925,jarvis_3d,jarvis,high,mp-1026347,3D
JVASP-28571,Te2 W3 Se4,0.7777,0.8467,0.06900000000000006,jarvis_3d,jarvis,high,mp-1026348,3D
JVASP-28573,Te4 W3 Se2,0.1973,0.2734,0.07609999999999997,jarvis_3d,jarvis,high,mp-1026350,3D
JVASP-28575,Te4 Mo1 W2 S2,0.0876,0.1912,0.10360000000000001,jarvis_3d,jarvis,high,mp-1026352,3D
JVASP-28576,Te4 W3 Se2,0.199,0.4611,0.2621,jarvis_3d,jarvis,high,mp-1026356,3D
JVASP-28577,Te4 W3 S2,0.0016,0.2256,0.224,jarvis_3d,jarvis,high,mp-1026362,3D
JVASP-28580,Mo2 W2 Se4 S4,0.5725,0.6728,0.10029999999999994,jarvis_3d,jarvis,high,mp-1026911,3D
JVASP-28583,Te2 Mo3 W1 Se2 S4,0.0146,0.0598,0.0452,jarvis_3d,jarvis,high,mp-1026917,3D
JVASP-28589,Te2 Mo4 Se2 S4,0.0373,0.1535,0.1162,jarvis_3d,jarvis,high,mp-1026933,3D
JVASP-28651,Te2 Mo3 W1 Se4 S2,0.2077,0.2906,0.08290000000000003,jarvis_3d,jarvis,high,mp-1027149,3D
JVASP-28660,Te4 Mo2 W2 Se2 S2,0.2053,0.3127,0.10739999999999997,jarvis_3d,jarvis,high,mp-1027170,3D
JVASP-28668,Mo2 W2 S8,0.7786,1.2647,0.4861,jarvis_3d,jarvis,high,mp-1027269,3D
JVASP-28669,Mo1 W3 S8,0.9937,1.0485,0.05479999999999996,jarvis_3d,jarvis,high,mp-1027273,3D
JVASP-28692,Te4 Mo3 W1 S4,0.0007,0.0628,0.062099999999999995,jarvis_3d,jarvis,high,mp-1027352,3D
JVASP-28697,Te4 Mo2 W2 S4,0.0007,0.015,0.0143,jarvis_3d,jarvis,high,mp-1027375,3D
JVASP-28699,Te2 Mo3 W1 S6,0.0016,0.0042,0.0026,jarvis_3d,jarvis,high,mp-1027379,3D
JVASP-28740,Mo3 W1 Se6 S2,0.2936,0.3896,0.09599999999999997,jarvis_3d,jarvis,high,mp-1027549,3D
JVASP-28747,Te2 Mo4 Se2 S4,0.0262,0.1493,0.12309999999999999,jarvis_3d,jarvis,high,mp-1027579,3D
JVASP-28767,Te2 Mo3 W1 Se6,0.1917,0.2631,0.07139999999999999,jarvis_3d,jarvis,high,mp-1027658,3D
JVASP-28779,Te2 Mo3 W1 Se6,0.1041,0.3775,0.2734,jarvis_3d,jarvis,high,mp-1027711,3D
JVASP-28781,Mo3 W1 Se4 S4,0.5936,0.771,0.1774,jarvis_3d,jarvis,high,mp-1027714,3D
JVASP-28794,Te2 Mo3 W1 S6,0.0838,0.254,0.17020000000000002,jarvis_3d,jarvis,high,mp-1027780,3D
JVASP-28796,Mo3 W1 Se2 S6,0.7041,0.9131,0.20900000000000007,jarvis_3d,jarvis,high,mp-1027795,3D
JVASP-28797,Te2 Mo4 Se4 S2,0.2126,0.2272,0.014600000000000002,jarvis_3d,jarvis,high,mp-1027801,3D
JVASP-28804,Te2 Mo3 W1 S6,0.0064,0.2148,0.2084,jarvis_3d,jarvis,high,mp-1027916,3D
JVASP-28806,Te2 Mo3 W1 Se2 S4,0.0824,0.1924,0.10999999999999999,jarvis_3d,jarvis,high,mp-1027980,3D
JVASP-28816,W4 S8,0.7806,1.3704,0.5898000000000001,jarvis_3d,jarvis,high,mp-1028441,3D
JVASP-28817,Te4 W4 Se2 S2,0.107,0.1947,0.08770000000000001,jarvis_3d,jarvis,high,mp-1028445,3D
JVASP-28826,Te4 Mo2 W2 S4,0.1633,0.1883,0.024999999999999994,jarvis_3d,jarvis,high,mp-1028483,3D
JVASP-28842,Te2 Mo1 W3 Se2 S4,0.028,0.112,0.084,jarvis_3d,jarvis,high,mp-1028535,3D
JVASP-28849,Te8 Mo1 W3,0.9127,0.919,0.006300000000000083,jarvis_3d,jarvis,high,mp-1028576,3D
JVASP-28852,Te4 W4 Se4,0.2849,0.2865,0.0015999999999999903,jarvis_3d,jarvis,high,mp-1028589,3D
JVASP-28855,Te8 Mo2 W2,0.8863,0.9343,0.04800000000000004,jarvis_3d,jarvis,high,mp-1028594,3D
JVASP-28865,Te6 Mo2 W2 S2,0.0855,0.1629,0.07739999999999998,jarvis_3d,jarvis,high,mp-1028643,3D
JVASP-28870,W4 Se4 S4,0.5209,1.0061,0.48519999999999996,jarvis_3d,jarvis,high,mp-1028663,3D
JVASP-28872,Te2 W4 Se2 S4,0.0006,0.2105,0.2099,jarvis_3d,jarvis,high,mp-1028669,3D
JVASP-28881,Te2 W4 Se4 S2,0.0134,0.0266,0.013199999999999998,jarvis_3d,jarvis,high,mp-1028704,3D
JVASP-28885,Te2 Mo1 W3 Se4 S2,0.0161,0.2912,0.2751,jarvis_3d,jarvis,high,mp-1028728,3D
JVASP-28886,Te2 W4 Se4 S2,0.0029,0.4789,0.476,jarvis_3d,jarvis,high,mp-1028729,3D
JVASP-28897,W4 Se4 S4,0.5594,0.9403,0.3809,jarvis_3d,jarvis,high,mp-1028764,3D
JVASP-28898,Te2 Mo1 W3 Se4 S2,0.2118,0.4942,0.2824,jarvis_3d,jarvis,high,mp-1028765,3D
JVASP-28908,Te2 W4 Se4 S2,0.0124,0.5098,0.4974,jarvis_3d,jarvis,high,mp-1028821,3D
JVASP-28909,Mo1 W3 Se8,1.0669,1.3809,0.31400000000000006,jarvis_3d,jarvis,high,mp-1028823,3D
JVASP-28928,Te2 W4 Se4 S2,0.0355,0.1973,0.1618,jarvis_3d,jarvis,high,mp-1028887,3D
JVASP-28931,Te2 Mo1 W3 Se4 S2,0.004,0.2606,0.2566,jarvis_3d,jarvis,high,mp-1028911,3D
JVASP-28942,Te2 Mo2 W2 Se4 S2,0.0089,0.2455,0.2366,jarvis_3d,jarvis,high,mp-1028939,3D
JVASP-28957,Te2 Mo1 W3 S6,0.0009,0.251,0.2501,jarvis_3d,jarvis,high,mp-1028999,3D
JVASP-28967,Te2 Mo1 W3 Se2 S4,0.0029,0.0518,0.0489,jarvis_3d,jarvis,high,mp-1029044,3D
JVASP-28983,Te2 Mo1 W3 Se2 S4,0.0658,0.1238,0.057999999999999996,jarvis_3d,jarvis,high,mp-1029113,3D
JVASP-28994,Te4 Mo1 W3 Se2 S2,0.0162,0.0791,0.06290000000000001,jarvis_3d,jarvis,high,mp-1029145,3D
JVASP-29007,Te4 Mo2 W2 Se2 S2,0.0101,0.5184,0.5083,jarvis_3d,jarvis,high,mp-1029213,3D
JVASP-29011,Mo1 W3 Se2 S6,0.7374,0.7648,0.02739999999999998,jarvis_3d,jarvis,high,mp-1029232,3D
JVASP-29019,Te2 Mo1 W3 S6,0.001,0.0468,0.0458,jarvis_3d,jarvis,high,mp-1029248,3D
JVASP-29023,Te6 Mo1 W3 Se2,0.2163,0.2459,0.029600000000000015,jarvis_3d,jarvis,high,mp-1029255,3D
JVASP-29025,Te4 Mo2 W2 Se4,0.1383,0.651,0.5127,jarvis_3d,jarvis,high,mp-1029259,3D
JVASP-29039,Te2 Mo1 W3 Se6,0.7191,0.9619,0.24280000000000002,jarvis_3d,jarvis,high,mp-1029421,3D
JVASP-29042,Te4 Mo2 W2 Se2 S2,0.0357,0.0481,0.012399999999999994,jarvis_3d,jarvis,high,mp-1029945,3D
JVASP-29057,Te4 Mo1 W3 Se2 S2,0.0801,0.402,0.3219,jarvis_3d,jarvis,high,mp-1030128,3D
JVASP-29077,Te4 Mo2 W2 S4,0.0801,0.6838,0.6036999999999999,jarvis_3d,jarvis,high,mp-1030196,3D
JVASP-29079,Te4 Mo2 W2 Se2 S2,0.0907,0.3383,0.2476,jarvis_3d,jarvis,high,mp-1030201,3D
JVASP-29084,Te4 Mo3 W1 S4,0.0076,0.0197,0.0121,jarvis_3d,jarvis,high,mp-1030240,3D
JVASP-29093,Te6 Mo3 W1 S2,0.0863,0.1025,0.016199999999999992,jarvis_3d,jarvis,high,mp-1030281,3D
JVASP-29102,Te8 Mo4,0.7834,1.0007,0.21729999999999994,jarvis_3d,jarvis,high,mp-1030319,3D
JVASP-29114,Te6 Mo2 W2 S2,0.0921,0.176,0.08389999999999999,jarvis_3d,jarvis,high,mp-1030353,3D
JVASP-29157,Te2 Mo2 W2 Se4 S2,0.166,0.518,0.352,jarvis_3d,jarvis,high,mp-1030516,3D
JVASP-29163,Mo2 W2 Se6 S2,0.551,0.6727,0.12169999999999992,jarvis_3d,jarvis,high,mp-1030522,3D
JVASP-29165,Mo2 W2 Se4 S4,0.5853,0.6202,0.03489999999999993,jarvis_3d,jarvis,high,mp-1030524,3D
JVASP-29171,Mo1 W3 Se4 S4,0.5574,1.2355,0.6781,jarvis_3d,jarvis,high,mp-1030536,3D
JVASP-29172,Mo2 W2 Se8,1.0553,1.2214,0.16610000000000014,jarvis_3d,jarvis,high,mp-1030565,3D
JVASP-29174,Mo1 W3 Se6 S2,0.4841,0.7208,0.23670000000000002,jarvis_3d,jarvis,high,mp-1030567,3D
JVASP-29175,Te2 Mo1 W3 Se4 S2,0.0389,0.7131,0.6741999999999999,jarvis_3d,jarvis,high,mp-1030568,3D
JVASP-29183,Te4 Mo3 W1 Se2 S2,0.0078,0.3474,0.3396,jarvis_3d,jarvis,high,mp-1030576,3D
JVASP-29187,Te4 Mo2 W2 Se2 S2,0.0037,0.1074,0.1037,jarvis_3d,jarvis,high,mp-1030596,3D
JVASP-29194,Te6 Mo2 W2 Se2,0.1649,0.1965,0.03160000000000002,jarvis_3d,jarvis,high,mp-1030682,3D
JVASP-29200,Te2 Mo3 W1 Se6,0.1602,0.5151,0.3549,jarvis_3d,jarvis,high,mp-1030722,3D
JVASP-29211,Te2 Mo3 W1 Se4 S2,0.1473,0.3422,0.19490000000000002,jarvis_3d,jarvis,high,mp-1030827,3D
JVASP-29218,P4 Se12 Pb4,1.7485,2.3533,0.6048,jarvis_3d,jarvis,high,mp-20316,3D
JVASP-29222,Te6 Bi6,0.0241,0.1375,0.11340000000000001,jarvis_3d,jarvis,high,mp-23224,3D
JVASP-29223,O20 I8,2.6939,3.878,1.1841,jarvis_3d,jarvis,high,mp-23261,3D
JVASP-29226,H8 O8 P4 Cd2,4.5476,6.9309,2.3833,jarvis_3d,jarvis,high,mp-24316,3D
JVASP-29231,H16 O16 Mg3 P2,5.3788,7.5091,2.1303,jarvis_3d,jarvis,high,mp-24638,3D
JVASP-29240,O16 As8,3.5836,5.0422,1.4586000000000001,jarvis_3d,jarvis,high,mp-27356,3D
JVASP-29244,Sb8 O10 Br4,2.4771,3.5429,1.0657999999999999,jarvis_3d,jarvis,high,mp-27700,3D
JVASP-29245,O10 Se2 U2,2.0192,2.2145,0.19530000000000003,jarvis_3d,jarvis,high,mp-27723,3D
JVASP-29246,Co1 Br15 Th6,0.0562,0.6125,0.5563,jarvis_3d,jarvis,high,mp-28167,3D