material_id,formula,pbe_bandgap,hse_bandgap,bandgap_correction,dataset,data_source,confidence,mpid,dimensionality
JVASP-38085,Rb2 Na1 Tl1 F6,3.6825,5.6241,1.9416000000000002,jarvis_3d,jarvis,high,mp-989548,3D
JVASP-38087,Rb2 Tl1 In1 Cl6,2.2692,3.1948,0.9255999999999998,jarvis_3d,jarvis,high,mp-989550,3D
JVASP-38092,Tl2 In1 Ga1 F6,2.4916,2.9039,0.4123000000000001,jarvis_3d,jarvis,high,mp-989555,3D
JVASP-38115,Rb2 Na1 In1 F6,5.5871,8.277,2.689899999999999,jarvis_3d,jarvis,high,mp-989578,3D
JVASP-38133,La1 W1 N3,0.8182,1.1264,0.30820000000000003,jarvis_3d,jarvis,high,mp-989601,3D
JVASP-38141,Y2 W2 N6,1.232,1.7971,0.5650999999999999,jarvis_3d,jarvis,high,mp-989609,3D
JVASP-38151,Rb6 Si2,0.0019,0.122,0.1201,jarvis_3d,jarvis,high,mp-974572,3D
JVASP-38155,Rb4 Mg2 H8,3.1404,5.7432,2.6028,jarvis_3d,jarvis,high,mp-974586,3D
JVASP-38158,Hg2 F4,1.4133,3.6443,2.231,jarvis_3d,jarvis,high,mp-974603,3D
JVASP-38178,K4 H8 Pt2,3.3082,3.9943,0.6861000000000002,jarvis_3d,jarvis,high,mp-974713,3D
JVASP-38180,Rb3 Y1,0.0095,0.0115,0.002,jarvis_3d,jarvis,high,mp-974732,3D
JVASP-38182,K1 Sr3,0.0047,0.0106,0.0059,jarvis_3d,jarvis,high,mp-974738,3D
JVASP-38185,Rb3 V1,0.005,0.0204,0.0154,jarvis_3d,jarvis,high,mp-974743,3D
JVASP-38201,Rb3 Sn1,0.2417,0.7481,0.5064,jarvis_3d,jarvis,high,mp-974789,3D
JVASP-38205,Rb3 Ru1,0.008,0.1501,0.1421,jarvis_3d,jarvis,high,mp-974810,3D
JVASP-38206,Rb3 Sm1,0.01,0.0187,0.008700000000000001,jarvis_3d,jarvis,high,mp-974816,3D
JVASP-38207,Rb3 Tc1,0.0194,0.0726,0.0532,jarvis_3d,jarvis,high,mp-974820,3D
JVASP-38208,Rb3 P1,0.6523,1.5527,0.9004,jarvis_3d,jarvis,high,mp-974822,3D
JVASP-38210,Rb3 Pr1,0.0054,0.011,0.005599999999999999,jarvis_3d,jarvis,high,mp-974828,3D
JVASP-38214,Rb3 Os1,0.0882,0.3255,0.2373,jarvis_3d,jarvis,high,mp-974843,3D
JVASP-38215,Rb3 Os1,0.0034,0.2046,0.20120000000000002,jarvis_3d,jarvis,high,mp-974846,3D
JVASP-38216,Rb3 Nd1,0.0059,0.0079,0.002000000000000001,jarvis_3d,jarvis,high,mp-974850,3D
JVASP-38220,Nd1 Y3,0.0059,0.0084,0.0024999999999999996,jarvis_3d,jarvis,high,mp-974865,3D
JVASP-38224,Rb3 Na1,0.0123,0.0494,0.0371,jarvis_3d,jarvis,high,mp-974883,3D
JVASP-38230,Rb3 Mg1,0.0043,0.0121,0.0078,jarvis_3d,jarvis,high,mp-974940,3D
JVASP-38233,Rb3 Ir1,0.036,0.5052,0.4692,jarvis_3d,jarvis,high,mp-974949,3D
JVASP-38235,Rb3 Hg1,0.0079,0.0116,0.0036999999999999984,jarvis_3d,jarvis,high,mp-974951,3D
JVASP-38240,Rb3 Hf1,0.0004,0.002,0.0016,jarvis_3d,jarvis,high,mp-974972,3D
JVASP-38241,Hf1 Zr1 Zn2,0.01,0.0404,0.030399999999999996,jarvis_3d,jarvis,high,mp-974973,3D
JVASP-38303,Rb1 Na2 Sb1,0.8406,1.8486,1.008,jarvis_3d,jarvis,high,mp-975275,3D
JVASP-38306,Rb1 Li1 O3,0.0077,0.0155,0.0078,jarvis_3d,jarvis,high,mp-975291,3D
JVASP-38312,Rb1 F3,9.7193,12.9831,3.2638,jarvis_3d,jarvis,high,mp-975312,3D
JVASP-38317,Rb1 F3,9.7458,13.0104,3.2646000000000015,jarvis_3d,jarvis,high,mp-975337,3D
JVASP-38335,Rb1 Be1 O3,0.0163,0.0291,0.012800000000000002,jarvis_3d,jarvis,high,mp-975394,3D
JVASP-38353,Mn3 Hg1,0.0053,0.013,0.007699999999999999,jarvis_3d,jarvis,high,mp-975467,3D
JVASP-38355,Rb1 Ba3,0.0011,0.0048,0.0036999999999999993,jarvis_3d,jarvis,high,mp-975509,3D
JVASP-38366,Nd1 In1 Rh2,0.0059,0.0138,0.0079,jarvis_3d,jarvis,high,mp-975537,3D
JVASP-38394,Pr3 Cu1,0.0024,0.0025,0.00010000000000000026,jarvis_3d,jarvis,high,mp-975642,3D
JVASP-38395,Be1 F2,7.0472,11.1273,4.0801,jarvis_3d,jarvis,high,mp-975644,3D
JVASP-38396,Pr2 Zn2 Sb2 O2,0.0262,0.8086,0.7824,jarvis_3d,jarvis,high,mp-975646,3D
JVASP-38397,Pr3 Ag1,0.0005,0.0017,0.0012,jarvis_3d,jarvis,high,mp-975647,3D
JVASP-38419,Pr1 Tm1 Mg2,0.0147,0.0426,0.0279,jarvis_3d,jarvis,high,mp-975789,3D
JVASP-38445,Hf2 Ru1 Rh1,0.0032,0.0171,0.013900000000000001,jarvis_3d,jarvis,high,mp-975897,3D
JVASP-38462,Na1 Li2 Pb1,0.0368,0.0458,0.009000000000000001,jarvis_3d,jarvis,high,mp-975997,3D
JVASP-38463,Nd1 Tm1 Mg2,0.0416,0.0555,0.013900000000000003,jarvis_3d,jarvis,high,mp-976008,3D
JVASP-38465,Li3 Co1,0.0031,0.0073,0.004200000000000001,jarvis_3d,jarvis,high,mp-976017,3D
JVASP-38496,Pr1 Er3,0.0034,0.0045,0.0010999999999999998,jarvis_3d,jarvis,high,mp-976135,3D
JVASP-38502,K2 Rb1 Sb1,1.0325,1.9609,0.9284000000000001,jarvis_3d,jarvis,high,mp-976148,3D
JVASP-38507,Na1 B1 H4,6.6294,8.9977,2.3682999999999996,jarvis_3d,jarvis,high,mp-976181,3D
JVASP-38544,Li2 Al2 H8,4.237,5.6612,1.4242,jarvis_3d,jarvis,high,mp-976291,3D
JVASP-38550,Li3 Pr1,0.0151,0.0198,0.004700000000000001,jarvis_3d,jarvis,high,mp-976321,3D
JVASP-38582,Nd3 Hg1,0.0089,0.01,0.0011000000000000003,jarvis_3d,jarvis,high,mp-976417,3D
JVASP-38583,Nd3 Ho1,0.0009,0.0009,0.0,jarvis_3d,jarvis,high,mp-976418,3D
JVASP-38592,Mg1 Mn1 O3,0.0081,0.0093,0.0011999999999999997,jarvis_3d,jarvis,high,mp-976446,3D
JVASP-38607,Li1 Lu2 Ga1,0.0154,0.0338,0.018399999999999996,jarvis_3d,jarvis,high,mp-976596,3D
JVASP-38644,Ni3 Pb1,0.0529,0.1339,0.08099999999999999,jarvis_3d,jarvis,high,mp-976830,3D
JVASP-38653,Na1 Ni3,0.0068,0.0073,0.0005000000000000004,jarvis_3d,jarvis,high,mp-976870,3D
JVASP-38669,Na1 Re3,0.0049,0.0063,0.0014000000000000002,jarvis_3d,jarvis,high,mp-976943,3D
JVASP-38746,Na1 Lu3,0.002,0.0036,0.0015999999999999999,jarvis_3d,jarvis,high,mp-977314,3D
JVASP-38755,Th1 Mg1 Zn2,0.0095,0.0329,0.023399999999999997,jarvis_3d,jarvis,high,mp-977352,3D
JVASP-38775,Tb1 Cd1 Au2,0.01,0.0143,0.0043,jarvis_3d,jarvis,high,mp-977376,3D
JVASP-38781,Zn1 Pd2 Au1,0.014,0.0437,0.029700000000000004,jarvis_3d,jarvis,high,mp-977383,3D
JVASP-38792,Tb1 Al1 Ag2,0.0384,0.062,0.023600000000000003,jarvis_3d,jarvis,high,mp-977394,3D
JVASP-38793,Yb4 Fe4 B16,0.0069,0.0098,0.0029,jarvis_3d,jarvis,high,mp-977395,3D
JVASP-38795,Tb1 Cd1 Pd2,0.0133,0.053,0.0397,jarvis_3d,jarvis,high,mp-977397,3D
JVASP-38798,Er1 In1 Rh2,0.0108,0.0129,0.0020999999999999994,jarvis_3d,jarvis,high,mp-977400,3D
JVASP-38803,Li1 Lu2 Rh1,0.0237,0.0311,0.0074,jarvis_3d,jarvis,high,mp-977405,3D
JVASP-38804,Ho2 Al1 Os1,0.0046,0.0093,0.004699999999999999,jarvis_3d,jarvis,high,mp-977406,3D
JVASP-38814,Nd2 B4 H2 F20,7.9393,9.2179,1.2786,jarvis_3d,jarvis,high,mp-977417,3D
JVASP-38818,Yb2 Zn1 Rh1,0.0056,0.0074,0.0018000000000000004,jarvis_3d,jarvis,high,mp-977423,3D
JVASP-38820,Ta2 Cr1 Ru1,0.0208,0.053,0.0322,jarvis_3d,jarvis,high,mp-977425,3D
JVASP-38821,Zn2 Pt1 Rh1,0.0157,0.0169,0.0011999999999999997,jarvis_3d,jarvis,high,mp-977427,3D
JVASP-38823,Mg1 Nb1 Ru2,0.0148,0.036,0.021199999999999997,jarvis_3d,jarvis,high,mp-977430,3D
JVASP-38824,Er1 Mg1 Zn2,0.0127,0.0417,0.029,jarvis_3d,jarvis,high,mp-977433,3D
JVASP-38826,Zr1 Al1 Rh2,0.0157,0.0288,0.0131,jarvis_3d,jarvis,high,mp-977435,3D
JVASP-38833,Yb2 Zn1 Ga1,0.0078,0.023,0.0152,jarvis_3d,jarvis,high,mp-977442,3D
JVASP-38836,Nd2 Zn1 Ir1,0.0239,0.0297,0.0058,jarvis_3d,jarvis,high,mp-977445,3D
JVASP-38842,Mg1 Mn1 Rh2,0.003,0.0108,0.0078000000000000005,jarvis_3d,jarvis,high,mp-977463,3D
JVASP-38843,Zr1 In1 Pd2,0.0006,0.0195,0.0189,jarvis_3d,jarvis,high,mp-977475,3D
JVASP-38863,Mg1 Sc1 Ag2,0.0146,0.0231,0.008499999999999999,jarvis_3d,jarvis,high,mp-977554,3D
JVASP-38864,Mg1 Nb1 Rh2,0.0133,0.043,0.029699999999999997,jarvis_3d,jarvis,high,mp-977555,3D
JVASP-38865,Mg1 Sc1 Cd2,0.0209,0.0224,0.0015000000000000013,jarvis_3d,jarvis,high,mp-977556,3D
JVASP-38871,Li1 Nb1 Ir2,0.0003,0.0043,0.004,jarvis_3d,jarvis,high,mp-977563,3D
JVASP-38872,Mg1 Sc1 Hg2,0.0105,0.0213,0.010799999999999999,jarvis_3d,jarvis,high,mp-977564,3D
JVASP-38882,Ho1 Sb1 Pd2,0.0469,0.0749,0.027999999999999997,jarvis_3d,jarvis,high,mp-977574,3D
JVASP-38887,Mg1 Sc2 Al1,0.0041,0.0144,0.0103,jarvis_3d,jarvis,high,mp-977580,3D
JVASP-38892,Zr3 Tl1,0.0197,0.0419,0.0222,jarvis_3d,jarvis,high,mp-977585,3D
JVASP-38899,Zn1 Mo3,0.0063,0.0114,0.0051,jarvis_3d,jarvis,high,mp-977997,3D
JVASP-38903,Rb3 Sm1,0.0049,0.0174,0.012499999999999999,jarvis_3d,jarvis,high,mp-978034,3D
JVASP-38928,Mg2 Ta2,0.0013,0.0053,0.004,jarvis_3d,jarvis,high,mp-978258,3D
JVASP-38935,Mg2 Zn1 Pt1,0.0139,0.0194,0.005500000000000001,jarvis_3d,jarvis,high,mp-978266,3D
JVASP-38939,Mg3 Br1,0.0043,0.0073,0.003,jarvis_3d,jarvis,high,mp-978272,3D
JVASP-38968,Ta1 Be1 O3,0.0135,0.0245,0.011000000000000001,jarvis_3d,jarvis,high,mp-972222,3D
JVASP-38993,Tc1 Pt3,0.0036,0.0064,0.0028000000000000004,jarvis_3d,jarvis,high,mp-972326,3D
JVASP-39020,Sm4 B4 S12,2.4308,3.2822,0.8513999999999999,jarvis_3d,jarvis,high,mp-972448,3D
JVASP-39028,Sm3 Sc1,0.0004,0.0039,0.0034999999999999996,jarvis_3d,jarvis,high,mp-972479,3D
JVASP-39029,Sm3 Ti1,0.0046,0.0052,0.0005999999999999998,jarvis_3d,jarvis,high,mp-972486,3D
JVASP-39037,Sm1 Ta3,0.0068,0.0083,0.0015000000000000005,jarvis_3d,jarvis,high,mp-972514,3D
JVASP-39038,Sm1 Y3,0.0018,0.0046,0.0028,jarvis_3d,jarvis,high,mp-972517,3D
JVASP-39044,Sm1 Y1 Ag2,0.001,0.0188,0.0178,jarvis_3d,jarvis,high,mp-972528,3D
JVASP-39069,Sm1 Dy1 Zn2,0.0172,0.0199,0.002700000000000001,jarvis_3d,jarvis,high,mp-972640,3D
JVASP-39072,Sm1 Dy1 Rh2,0.004,0.059,0.05499999999999999,jarvis_3d,jarvis,high,mp-972650,3D
JVASP-39076,Sm1 Co1 Si3,0.0082,0.0104,0.002199999999999999,jarvis_3d,jarvis,high,mp-972659,3D
JVASP-39077,Sm1 Ho1 Rh2,0.0035,0.0454,0.0419,jarvis_3d,jarvis,high,mp-972660,3D
JVASP-39085,Sm1 Br1,0.028,0.1495,0.1215,jarvis_3d,jarvis,high,mp-972742,3D
JVASP-39091,Si3 F1,0.0005,0.0012,0.0006999999999999999,jarvis_3d,jarvis,high,mp-972767,3D
JVASP-39094,Si2 B2 O5,0.0349,0.6775,0.6426,jarvis_3d,jarvis,high,mp-972793,3D
JVASP-39095,Si4 O8,5.6843,8.5856,2.901299999999999,jarvis_3d,jarvis,high,mp-972808,3D
JVASP-39096,Si1 Tc2 W1,0.0045,0.0171,0.0126,jarvis_3d,jarvis,high,mp-972810,3D
JVASP-39100,Si2 Ge2 N4 O2,3.7701,5.3748,1.6046999999999998,jarvis_3d,jarvis,high,mp-972831,3D
JVASP-39110,Sc2 Ru1 Au1,0.0088,0.0162,0.007399999999999999,jarvis_3d,jarvis,high,mp-972879,3D
JVASP-39111,Sc2 Cd1 Ag1,0.0089,0.0116,0.0026999999999999993,jarvis_3d,jarvis,high,mp-972882,3D
JVASP-39118,Sc2 Al1 Ag1,0.014,0.015,0.0009999999999999992,jarvis_3d,jarvis,high,mp-972907,3D
JVASP-39121,Sc2 Al1 Cd1,0.0265,0.0473,0.020800000000000003,jarvis_3d,jarvis,high,mp-972914,3D
JVASP-39162,Sc1 Cu3,0.0033,0.0058,0.0024999999999999996,jarvis_3d,jarvis,high,mp-973092,3D
JVASP-39198,Mg4 Sn2 O8,2.0984,3.8914,1.7930000000000001,jarvis_3d,jarvis,high,mp-973261,3D
JVASP-39203,Ho2 Ru1 Au1,0.0154,0.0188,0.0034000000000000002,jarvis_3d,jarvis,high,mp-973270,3D
JVASP-39207,Ho1 Lu1 Ag2,0.002,0.0035,0.0015,jarvis_3d,jarvis,high,mp-973283,3D
JVASP-39208,Ho1 Lu1 Au2,0.0041,0.0059,0.0017999999999999995,jarvis_3d,jarvis,high,mp-973285,3D
JVASP-39212,Lu6 Ga2,0.0035,0.0116,0.0081,jarvis_3d,jarvis,high,mp-973300,3D
JVASP-39215,Ho2 Pd1 Rh1,0.0018,0.0057,0.0039000000000000003,jarvis_3d,jarvis,high,mp-973314,3D
JVASP-39233,Lu2 Ru1 Au1,0.0238,0.0272,0.0033999999999999968,jarvis_3d,jarvis,high,mp-973414,3D
JVASP-39245,Hg3 C1,0.0207,0.0267,0.006000000000000002,jarvis_3d,jarvis,high,mp-973450,3D
JVASP-39248,Lu2 Tc1 Au1,0.0287,0.0308,0.002100000000000001,jarvis_3d,jarvis,high,mp-973456,3D
JVASP-39261,K3 Si1,0.6228,1.2595,0.6367,jarvis_3d,jarvis,high,mp-973528,3D
JVASP-39265,K3 Sc1,0.0026,0.0047,0.0021000000000000003,jarvis_3d,jarvis,high,mp-973535,3D
JVASP-39267,Lu2 Al1 Zn1,0.0138,0.0373,0.0235,jarvis_3d,jarvis,high,mp-973538,3D
JVASP-39273,K3 Sm1,0.0042,0.0045,0.0002999999999999999,jarvis_3d,jarvis,high,mp-973554,3D
JVASP-39275,Fe1 Au3,0.0099,0.0183,0.0084,jarvis_3d,jarvis,high,mp-973557,3D
JVASP-39279,Fe1 Pb1 O3,0.0034,0.021,0.0176,jarvis_3d,jarvis,high,mp-973579,3D
JVASP-39280,Lu2 Al6 C6,0.0942,0.7421,0.6478999999999999,jarvis_3d,jarvis,high,mp-973586,3D
JVASP-39293,K3 Sr1,0.001,0.0026,0.0015999999999999999,jarvis_3d,jarvis,high,mp-973627,3D
JVASP-39306,K1 V5 Se8,0.0007,0.0037,0.003,jarvis_3d,jarvis,high,mp-973666,3D
JVASP-39310,Hg2 S2,0.7235,0.8001,0.0766,jarvis_3d,jarvis,high,mp-973676,3D
JVASP-39313,Nd2 Ho6,0.0057,0.0062,0.0004999999999999996,jarvis_3d,jarvis,high,mp-973685,3D
JVASP-39335,Pa3 Tl1,0.0005,0.0018,0.0013,jarvis_3d,jarvis,high,mp-973792,3D
JVASP-39346,Pd1 N1,0.0153,0.0357,0.0204,jarvis_3d,jarvis,high,mp-973835,3D
JVASP-39349,Pa2 Sb1 Te1,0.0002,0.0022,0.002,jarvis_3d,jarvis,high,mp-973843,3D
JVASP-39364,Ni3 Hg1,0.0086,0.0306,0.022,jarvis_3d,jarvis,high,mp-973884,3D
JVASP-39365,Lu2 Co1 Rh1,0.0187,0.0446,0.0259,jarvis_3d,jarvis,high,mp-973886,3D
JVASP-39406,Lu2 Br2,0.0079,0.0266,0.018699999999999998,jarvis_3d,jarvis,high,mp-973976,3D
JVASP-39410,Ho3 Pb1,0.0011,0.0021,0.0009999999999999998,jarvis_3d,jarvis,high,mp-973992,3D
JVASP-39412,Lu2 Ga1 Cu1,0.0047,0.0067,0.002,jarvis_3d,jarvis,high,mp-973996,3D
JVASP-39426,K1 Tm1,0.0053,0.0062,0.0008999999999999998,jarvis_3d,jarvis,high,mp-974062,3D
JVASP-39429,Nd3 Sm1,0.0134,0.0136,0.0001999999999999988,jarvis_3d,jarvis,high,mp-974066,3D
JVASP-39433,Ho1 Er1 Zn2,0.0089,0.0413,0.032400000000000005,jarvis_3d,jarvis,high,mp-974253,3D
JVASP-39434,K2 H16 N6,2.6471,5.0688,2.4217000000000004,jarvis_3d,jarvis,high,mp-974267,3D
JVASP-39435,Na3 Al1,0.0234,0.0342,0.0108,jarvis_3d,jarvis,high,mp-974270,3D
JVASP-39436,Nd2 Cu2 Te2 O2,1.5333,1.9734,0.44009999999999994,jarvis_3d,jarvis,high,mp-974307,3D
JVASP-39440,Ru2 I2,0.0029,0.007,0.0041,jarvis_3d,jarvis,high,mp-974315,3D
JVASP-39442,Nd2 Dy6,0.0026,0.0125,0.0099,jarvis_3d,jarvis,high,mp-974325,3D
JVASP-39451,Ir3 Ru1,0.0005,0.0005,0.0,jarvis_3d,jarvis,high,mp-974358,3D
JVASP-39452,Ru1 Au3,0.0018,0.0023,0.0005,jarvis_3d,jarvis,high,mp-974364,3D
JVASP-39454,Rh3 Pb1,0.0011,0.0022,0.0011,jarvis_3d,jarvis,high,mp-974368,3D
JVASP-39459,Rh4 S6,0.022,0.387,0.365,jarvis_3d,jarvis,high,mp-974381,3D
JVASP-39469,Re3 Sb1,0.0045,0.0207,0.0162,jarvis_3d,jarvis,high,mp-974417,3D
JVASP-39470,Re3 Mo1,0.0025,0.0027,0.0002000000000000001,jarvis_3d,jarvis,high,mp-974420,3D
JVASP-39477,Re4 C2,0.0038,0.0296,0.0258,jarvis_3d,jarvis,high,mp-974437,3D
JVASP-39483,Re3 F1,0.0003,0.0031,0.0028,jarvis_3d,jarvis,high,mp-974458,3D
JVASP-39486,Ru3 Cl1,0.0064,0.0083,0.0018999999999999998,jarvis_3d,jarvis,high,mp-974467,3D
JVASP-39508,K1 Y1 Sn1,0.7967,1.1218,0.32509999999999994,jarvis_3d,jarvis,high,mp-962072,3D
JVASP-39510,Y1 Tl1 Cd1,0.0142,0.0275,0.0133,jarvis_3d,jarvis,high,mp-962074,3D
JVASP-39514,Ca1 Cd1 Si1,0.0827,0.1163,0.033600000000000005,jarvis_3d,jarvis,high,mp-962078,3D
JVASP-39531,V3 Ag1,0.0013,0.0127,0.0114,jarvis_3d,jarvis,high,mp-971703,3D
JVASP-39536,Zn1 Cd1 S2,1.3734,2.8728,1.4993999999999998,jarvis_3d,jarvis,high,mp-971712,3D
JVASP-39582,U2 Ga2 O5,0.0011,0.0053,0.0042,jarvis_3d,jarvis,high,mp-971864,3D
JVASP-39635,Zr1 H3,0.0066,0.0383,0.0317,jarvis_3d,jarvis,high,mp-972087,3D
JVASP-39655,Ti1 Mn2 Si1,0.0085,0.0107,0.002199999999999999,jarvis_3d,jarvis,high,mp-865652,3D
JVASP-39658,Ti1 Nb1 Tc2,0.0135,0.0281,0.0146,jarvis_3d,jarvis,high,mp-865655,3D
JVASP-39680,Li1 Sm2 Ru1,0.0097,0.0189,0.0092,jarvis_3d,jarvis,high,mp-865708,3D
JVASP-39685,Li2 Tl1 Bi1,0.1589,0.4787,0.3198,jarvis_3d,jarvis,high,mp-865713,3D
JVASP-39688,Yb2 Cl4,5.5663,7.5946,2.0282999999999998,jarvis_3d,jarvis,high,mp-865716,3D
JVASP-39718,Yb1 Ga1 Pd2,0.013,0.0195,0.006500000000000001,jarvis_3d,jarvis,high,mp-865756,3D
JVASP-39720,Yb1 Ge1 O3,1.2162,3.5092,2.293,jarvis_3d,jarvis,high,mp-865758,3D
JVASP-39732,Yb6 Si2 O2,0.1266,0.2993,0.17270000000000002,jarvis_3d,jarvis,high,mp-865782,3D
JVASP-39735,Cr1 Pd3,0.0056,0.0112,0.0056,jarvis_3d,jarvis,high,mp-865786,3D
JVASP-39748,Yb2 As1 Au1,0.0474,0.6758,0.6284,jarvis_3d,jarvis,high,mp-865799,3D
JVASP-39750,Lu1 Pa1 Tc2,0.0284,0.0365,0.008099999999999996,jarvis_3d,jarvis,high,mp-865801,3D
JVASP-39754,Ta1 Zn1 Co2,0.0086,0.0138,0.0052,jarvis_3d,jarvis,high,mp-865805,3D
JVASP-39766,Yb1 Pa1 Ru2,0.0246,0.0343,0.009699999999999997,jarvis_3d,jarvis,high,mp-865828,3D
JVASP-39778,Lu1 Hf1 Ru2,0.0183,0.0214,0.0030999999999999986,jarvis_3d,jarvis,high,mp-865846,3D
JVASP-39812,Tm1 Cd1 Au2,0.0208,0.04,0.019200000000000002,jarvis_3d,jarvis,high,mp-865887,3D
JVASP-39824,Ti3 Tl1,0.0024,0.0105,0.008100000000000001,jarvis_3d,jarvis,high,mp-865900,3D
JVASP-39828,Be1 Si1 Ir2,0.0084,0.0108,0.002400000000000001,jarvis_3d,jarvis,high,mp-865904,3D
JVASP-39841,Lu2 Zn1 Tc1,0.0255,0.0271,0.0016000000000000007,jarvis_3d,jarvis,high,mp-865917,3D
JVASP-39848,Li1 Zr1 Au2,0.0087,0.0194,0.010700000000000001,jarvis_3d,jarvis,high,mp-865924,3D
JVASP-39850,Cd2 Pd1 Rh1,0.0411,0.0536,0.012500000000000004,jarvis_3d,jarvis,high,mp-865926,3D
JVASP-39852,Ti2 Tc1 Pt1,0.0105,0.0301,0.0196,jarvis_3d,jarvis,high,mp-865928,3D
JVASP-39853,Cd2 Pt1 Rh1,0.0497,0.1114,0.0617,jarvis_3d,jarvis,high,mp-865929,3D
JVASP-39858,Yb2 F4,6.9921,10.8438,3.8517,jarvis_3d,jarvis,high,mp-865934,3D
JVASP-39888,Li2 Ce1 Tl1,0.0,0.0004,0.0004,jarvis_3d,jarvis,high,mp-865971,3D
JVASP-39890,P1 H1 Pb2 F10,5.705,7.3377,1.6326999999999998,jarvis_3d,jarvis,high,mp-865973,3D
JVASP-39902,Li2 Ca1 Ge1,0.0896,0.0955,0.0059000000000000025,jarvis_3d,jarvis,high,mp-865986,3D
JVASP-39905,Al2 Ir1 Ru1,0.0059,0.0173,0.0114,jarvis_3d,jarvis,high,mp-865989,3D
JVASP-39912,Yb1 Sb1 Pd2,0.0207,0.0564,0.035699999999999996,jarvis_3d,jarvis,high,mp-865996,3D
JVASP-39914,Hf1 Ga1 Ir2,0.0155,0.0269,0.0114,jarvis_3d,jarvis,high,mp-865998,3D
JVASP-39915,Yb1 Tl1 Pd2,0.0028,0.01,0.0072,jarvis_3d,jarvis,high,mp-865999,3D
JVASP-39928,Dy1 Tm1 Mg2,0.0097,0.0123,0.0026,jarvis_3d,jarvis,high,mp-866013,3D
JVASP-39935,Yb1 Sm1 Hg2,0.0081,0.0271,0.019,jarvis_3d,jarvis,high,mp-866020,3D
JVASP-39940,Er1 Nb1 Os2,0.0086,0.0402,0.0316,jarvis_3d,jarvis,high,mp-866026,3D
JVASP-39945,Al2 Fe1 Ir1,0.0253,0.0337,0.008400000000000001,jarvis_3d,jarvis,high,mp-866031,3D
JVASP-39947,Al1 Zn1 Rh2,0.0139,0.014,0.00010000000000000113,jarvis_3d,jarvis,high,mp-866033,3D
JVASP-39955,Ti6 In2,0.0013,0.0236,0.0223,jarvis_3d,jarvis,high,mp-866046,3D
JVASP-39962,Ca1 Pr1 Ag2,0.011,0.0121,0.0011000000000000003,jarvis_3d,jarvis,high,mp-866060,3D
JVASP-39979,Mg1 Sc2 Tl1,0.0053,0.0082,0.0029000000000000007,jarvis_3d,jarvis,high,mp-866080,3D
JVASP-39980,Mg1 Sc2 Os1,0.0218,0.0296,0.007800000000000001,jarvis_3d,jarvis,high,mp-866081,3D
JVASP-39981,Mg1 Sc2 Tc1,0.0453,0.052,0.006699999999999998,jarvis_3d,jarvis,high,mp-866082,3D
JVASP-39989,Hf1 Zn1 Co2,0.0091,0.0203,0.011199999999999998,jarvis_3d,jarvis,high,mp-866096,3D
JVASP-40002,Ho1 Nb1 Ru2,0.0345,0.0359,0.0013999999999999985,jarvis_3d,jarvis,high,mp-866112,3D
JVASP-40003,Hf1 Tc2 W1,0.0325,0.0665,0.034,jarvis_3d,jarvis,high,mp-866114,3D
JVASP-40005,Ho1 Ta1 Ru2,0.0176,0.0216,0.004,jarvis_3d,jarvis,high,mp-866116,3D
JVASP-40006,Hf1 Zn1 Au2,0.0598,0.0698,0.010000000000000002,jarvis_3d,jarvis,high,mp-866117,3D
JVASP-40007,Tm2 Ru1 Pt1,0.0235,0.0347,0.011200000000000002,jarvis_3d,jarvis,high,mp-866119,3D
JVASP-40012,Lu1 Ta1 Ru2,0.0387,0.042,0.0033000000000000043,jarvis_3d,jarvis,high,mp-866125,3D
JVASP-40020,Lu1 Sb1 Rh2,0.015,0.0224,0.0074,jarvis_3d,jarvis,high,mp-866137,3D
JVASP-40021,Lu1 Sb1 Ru2,0.016,0.0172,0.0011999999999999997,jarvis_3d,jarvis,high,mp-866138,3D
JVASP-40023,Ti1 Ga1 Pd2,0.0099,0.0349,0.025,jarvis_3d,jarvis,high,mp-866140,3D
JVASP-40024,Ti1 Ga1 Ir2,0.0273,0.0299,0.002599999999999998,jarvis_3d,jarvis,high,mp-866142,3D
JVASP-40028,Lu2 Ag1 Os1,0.0246,0.0357,0.011100000000000002,jarvis_3d,jarvis,high,mp-866147,3D
JVASP-40030,Ti1 Be1 Co2,0.0659,0.1015,0.03560000000000001,jarvis_3d,jarvis,high,mp-866152,3D
JVASP-40032,Ti1 Be1 Ir2,0.0223,0.0567,0.0344,jarvis_3d,jarvis,high,mp-866154,3D
JVASP-40035,Ti1 Ga1 Rh2,0.003,0.0258,0.0228,jarvis_3d,jarvis,high,mp-866157,3D
JVASP-40047,K1 Tl2 Bi1,0.0154,0.0186,0.003199999999999998,jarvis_3d,jarvis,high,mp-866169,3D
JVASP-40058,Yb1 Li2 Pb1,0.0092,0.1044,0.0952,jarvis_3d,jarvis,high,mp-866180,3D
JVASP-40059,Li2 Nd1 In1,0.1001,0.1073,0.007200000000000012,jarvis_3d,jarvis,high,mp-866181,3D
JVASP-40063,Ti3 Zn1,0.0172,0.0212,0.004,jarvis_3d,jarvis,high,mp-866186,3D
JVASP-40064,Ti2 Zn1 Tc1,0.0098,0.0204,0.010600000000000002,jarvis_3d,jarvis,high,mp-866187,3D
JVASP-40093,Hf1 Sn1 Rh2,0.0478,0.0514,0.003599999999999999,jarvis_3d,jarvis,high,mp-866221,3D
JVASP-40117,Ag1 Br1,1.0307,2.9851,1.9544000000000001,jarvis_3d,jarvis,high,mp-866291,3D
JVASP-40193,Ca2 Sn1 S4,0.0913,0.1579,0.0666,jarvis_3d,jarvis,high,mp-866819,3D
JVASP-40195,Ca4 Sn2 S8,0.7301,1.7358,1.0057,jarvis_3d,jarvis,high,mp-866824,3D
JVASP-40196,Ca2 Sn2 S6,1.6575,2.5628,0.9053000000000002,jarvis_3d,jarvis,high,mp-866826,3D