material_id,formula,pbe_bandgap,hse_bandgap,bandgap_correction,dataset,data_source,confidence,mpid,dimensionality
JVASP-57176,Ag4 Te4 O12,1.1511,1.1814,0.030299999999999994,jarvis_3d,jarvis,high,mp-561489,3D
JVASP-57178,K1 Na1 Mg2 Si4 O10 F2,5.5329,7.8681,2.3352000000000004,jarvis_3d,jarvis,high,mp-561491,3D
JVASP-57180,Dy6 Cu2 Sn2 S14,1.4762,2.1254,0.6492,jarvis_3d,jarvis,high,mp-561499,3D
JVASP-57181,Co1 Sn1 F6,0.6182,2.3143,1.6961,jarvis_3d,jarvis,high,mp-561501,3D
JVASP-57182,Ca4 Al6 O13,4.1011,6.0005,1.8994,jarvis_3d,jarvis,high,mp-561507,3D
JVASP-57184,Mg4 Bi2 As2 O12,3.4689,4.9826,1.5136999999999996,jarvis_3d,jarvis,high,mp-561518,3D
JVASP-57185,Y4 Si4 O14,4.7458,6.2933,1.5475000000000003,jarvis_3d,jarvis,high,mp-561531,3D
JVASP-57186,Na2 Mg2 B2 O6,4.1078,6.4736,2.3658,jarvis_3d,jarvis,high,mp-561536,3D
JVASP-57188,Y4 Si4 O14,5.4437,6.84,1.3963,jarvis_3d,jarvis,high,mp-561551,3D
JVASP-57226,Cr2 O6,1.9052,2.3907,0.4854999999999998,jarvis_3d,jarvis,high,mp-561804,3D
JVASP-57228,Sr2 Mn3 Bi2 O2,0.0022,0.0078,0.005599999999999999,jarvis_3d,jarvis,high,mp-561825,3D
JVASP-57229,Cr3 Cu1 O8,0.0041,0.0041,0.0,jarvis_3d,jarvis,high,mp-561826,3D
JVASP-57237,Ho4 F12,8.0868,9.8719,1.7851,jarvis_3d,jarvis,high,mp-561877,3D
JVASP-57241,V2 Cd1 O6,2.0683,2.3413,0.27300000000000013,jarvis_3d,jarvis,high,mp-561909,3D
JVASP-57242,Sr2 Fe2 S2 O1 F2,0.0047,0.0052,0.0004999999999999996,jarvis_3d,jarvis,high,mp-561913,3D
JVASP-57258,Zn4 Si4 O12,3.6742,5.3568,1.6825999999999999,jarvis_3d,jarvis,high,mp-562182,3D
JVASP-57259,V4 Cd4 Ag4 O16,1.9618,2.3518,0.3899999999999999,jarvis_3d,jarvis,high,mp-562207,3D
JVASP-57264,Ge1 Pb3 O5,1.9826,2.857,0.8744000000000003,jarvis_3d,jarvis,high,mp-562283,3D
JVASP-57276,Si4 O8,5.5882,9.1437,3.555500000000001,jarvis_3d,jarvis,high,mp-562490,3D
JVASP-57277,Ca2 Mg2 Si4 O12,4.8917,7.3641,2.4723999999999995,jarvis_3d,jarvis,high,mp-562517,3D
JVASP-57279,Ag4 C4 S4 N4,2.3263,3.6336,1.3073000000000001,jarvis_3d,jarvis,high,mp-562550,3D
JVASP-57290,Na6 Pb1 O5,1.2405,2.7818,1.5413000000000001,jarvis_3d,jarvis,high,mp-563025,3D
JVASP-57298,K4 Fe2 C8 O8,3.4111,4.0764,0.6652999999999998,jarvis_3d,jarvis,high,mp-565303,3D
JVASP-57308,Tl4 Mo2 O8,3.1453,3.5257,0.38039999999999985,jarvis_3d,jarvis,high,mp-565394,3D
JVASP-57311,Na2 V2 Cd2 O8,2.5941,3.4469,0.8527999999999998,jarvis_3d,jarvis,high,mp-565425,3D
JVASP-57335,K4 V2 O7,3.268,3.6764,0.4084000000000003,jarvis_3d,jarvis,high,mp-565574,3D
JVASP-57345,Dy2 Mo2 Cl2 O8,2.5616,3.6004,1.0388000000000002,jarvis_3d,jarvis,high,mp-565666,3D
JVASP-57348,Tm2 Mo2 Cl2 O8,2.4965,3.5107,1.0141999999999998,jarvis_3d,jarvis,high,mp-565693,3D
JVASP-57352,Er2 Mo2 Cl2 O8,2.526,3.5475,1.0215,jarvis_3d,jarvis,high,mp-565714,3D
JVASP-57364,Ho2 Mo2 Cl2 O8,2.5449,3.5748,1.0299,jarvis_3d,jarvis,high,mp-565801,3D
JVASP-57366,Sm2 Mo2 Cl2 O8,2.6482,3.7118,1.0636,jarvis_3d,jarvis,high,mp-565823,3D
JVASP-57368,Rb2 V2 I4 O16,2.5773,3.261,0.6837,jarvis_3d,jarvis,high,mp-565846,3D
JVASP-57370,Rb2 Nd2 W4 O16,3.5893,4.4437,0.8543999999999996,jarvis_3d,jarvis,high,mp-565854,3D
JVASP-57374,K6 V2 S2 O6,2.9146,3.3982,0.48360000000000003,jarvis_3d,jarvis,high,mp-565879,3D
JVASP-57379,Bi4 W2 O12,2.2757,3.1899,0.9142000000000001,jarvis_3d,jarvis,high,mp-565893,3D
JVASP-57393,V2 Sn2 P2 O10,0.006,0.02,0.014,jarvis_3d,jarvis,high,mp-566025,3D
JVASP-57410,K1 Cr1 F3,0.0034,0.094,0.0906,jarvis_3d,jarvis,high,mp-566131,3D
JVASP-57434,Si8 O16,4.5623,7.6286,3.0663,jarvis_3d,jarvis,high,mp-559860,3D
JVASP-57435,Ca2 Al4 O8,5.1454,6.9344,1.7889999999999997,jarvis_3d,jarvis,high,mp-558636,3D
JVASP-57439,Zn2 B8 O14,5.7188,8.1107,2.3918999999999997,jarvis_3d,jarvis,high,mp-558690,3D
JVASP-57447,Si6 O12,5.8325,6.609,0.7765000000000004,jarvis_3d,jarvis,high,mp-558733,3D
JVASP-57448,Sc6 O9,3.5603,4.5037,0.9434000000000005,jarvis_3d,jarvis,high,mp-558748,3D
JVASP-57456,K3 Nb3 B2 O12,2.2504,2.7772,0.5268000000000002,jarvis_3d,jarvis,high,mp-558828,3D
JVASP-57457,K2 Nd2 Pd2 O6,0.0191,0.5238,0.5047,jarvis_3d,jarvis,high,mp-558831,3D
JVASP-57459,Cd4 Bi4 S8 Cl4,1.9126,2.7453,0.8326999999999998,jarvis_3d,jarvis,high,mp-558849,3D
JVASP-57479,Sc1 F3,6.212,7.1409,0.9289000000000005,jarvis_3d,jarvis,high,mp-559092,3D
JVASP-57482,La2 Mo1 O6,3.5668,4.18,0.6131999999999995,jarvis_3d,jarvis,high,mp-559146,3D
JVASP-57484,Sr2 Ti2 Si4 O14,3.6298,3.7268,0.09699999999999998,jarvis_3d,jarvis,high,mp-559208,3D
JVASP-57491,K8 S4,2.4054,4.3032,1.8978000000000002,jarvis_3d,jarvis,high,mp-559278,3D
JVASP-57499,Si6 O12,4.3699,6.9987,2.6288,jarvis_3d,jarvis,high,mp-559389,3D
JVASP-57502,Zn2 C4 O8,3.2696,4.3399,1.0703,jarvis_3d,jarvis,high,mp-559437,3D
JVASP-57503,Co3 C2 Se2 O10,0.0052,0.0096,0.004399999999999999,jarvis_3d,jarvis,high,mp-559479,3D
JVASP-57507,In1 Bi2 S4 Cl1,1.5752,2.3365,0.7613000000000001,jarvis_3d,jarvis,high,mp-559521,3D
JVASP-57514,Na2 B2 C8 O16,3.5221,5.0747,1.5526,jarvis_3d,jarvis,high,mp-559618,3D
JVASP-57517,Ni3 Bi2 S2,0.0065,0.0082,0.001700000000000001,jarvis_3d,jarvis,high,mp-559634,3D
JVASP-57518,Sr2 Ca2 C4 O12,4.9268,6.665,1.7382,jarvis_3d,jarvis,high,mp-559653,3D
JVASP-57520,Ca4 Al4 Si2 O14,4.5843,6.5182,1.9339000000000004,jarvis_3d,jarvis,high,mp-559691,3D
JVASP-57521,Ga1 Mo4 S8,1.2382,1.3346,0.09640000000000004,jarvis_3d,jarvis,high,mp-559694,3D
JVASP-57525,Si4 O8,5.819,6.6926,0.8735999999999997,jarvis_3d,jarvis,high,mp-559741,3D
JVASP-57529,K2 Hg4 S2 Cl6 O6,2.6553,3.6153,0.96,jarvis_3d,jarvis,high,mp-559765,3D
JVASP-57539,Al6 F18,7.8954,11.1814,3.2859999999999996,jarvis_3d,jarvis,high,mp-559871,3D
JVASP-57541,Li2 Bi2 Pd4 O8,0.8569,1.0417,0.18480000000000008,jarvis_3d,jarvis,high,mp-559893,3D
JVASP-57544,Si6 O12,5.4921,9.4418,3.949700000000001,jarvis_3d,jarvis,high,mp-559928,3D
JVASP-57546,Ba3 In2 Cl2 O5,1.5545,3.2443,1.6898,jarvis_3d,jarvis,high,mp-559933,3D
JVASP-57554,Na4 Al2 Zn2 F14,5.0518,8.1481,3.0962999999999994,jarvis_3d,jarvis,high,mp-559982,3D
JVASP-57560,Ag4 S2,1.0795,1.9282,0.8487,jarvis_3d,jarvis,high,mp-560025,3D
JVASP-57563,Rb2 Na1 Bi1 F6,5.1249,6.7224,1.5975000000000001,jarvis_3d,jarvis,high,mp-560037,3D
JVASP-57570,Tb2 Cl4 F2,4.8895,6.5787,1.6892000000000005,jarvis_3d,jarvis,high,mp-560119,3D
JVASP-57574,Al3 P3 O12,5.6295,8.6253,2.995799999999999,jarvis_3d,jarvis,high,mp-560151,3D
JVASP-57577,Ti1 Fe1 Bi2 O6,0.0016,0.0041,0.0025000000000000005,jarvis_3d,jarvis,high,mp-560185,3D
JVASP-57604,Na1 Mg1 F3,6.3378,10.748,4.4102,jarvis_3d,jarvis,high,mp-560399,3D
JVASP-57620,K4 Ru2 Cl10 O1,0.0026,0.6844,0.6818,jarvis_3d,jarvis,high,mp-560515,3D
JVASP-57626,K2 Cr2 F6,0.0008,0.0019,0.0010999999999999998,jarvis_3d,jarvis,high,mp-560547,3D
JVASP-57649,S8 Pr6,0.0059,0.0148,0.008900000000000002,jarvis_3d,jarvis,high,mp-1449,3D
JVASP-57653,O6 Cu8,0.0059,0.0116,0.005699999999999999,jarvis_3d,jarvis,high,mp-1478,3D
JVASP-57661,Mg4 F8,7.2597,10.5053,3.2456000000000005,jarvis_3d,jarvis,high,mp-1746,3D
JVASP-57665,Be1 O1,8.6913,9.6866,0.9953000000000003,jarvis_3d,jarvis,high,mp-1794,3D
JVASP-57670,Al8 O12,5.8897,7.0055,1.1157999999999992,jarvis_3d,jarvis,high,mp-1938,3D
JVASP-57676,S8 Sm6,0.0107,0.0163,0.005599999999999999,jarvis_3d,jarvis,high,mp-2038,3D
JVASP-57679,Rb1 F1,6.7208,8.9935,2.2726999999999995,jarvis_3d,jarvis,high,mp-2064,3D
JVASP-57695,B2 N2,5.4319,6.7448,1.3129,jarvis_3d,jarvis,high,mp-2653,3D
JVASP-57702,S8 Ga1 Mo4,1.2383,1.3346,0.09630000000000005,jarvis_3d,jarvis,high,mp-2885,3D
JVASP-57703,K2 Al2 F8,7.4813,10.4701,2.9888000000000003,jarvis_3d,jarvis,high,mp-2910,3D
JVASP-57708,Na12 Co2 Se8,0.7457,2.1013,1.3556000000000001,jarvis_3d,jarvis,high,mp-3017,3D
JVASP-57712,Ca3 S3 O12,5.8332,8.4217,2.5885,jarvis_3d,jarvis,high,mp-3082,3D
JVASP-57726,Mg4 Si4 O12,6.0322,7.2393,1.2071000000000005,jarvis_3d,jarvis,high,mp-3547,3D
JVASP-57729,B6 O12 Nd2,5.6579,7.4826,1.8247,jarvis_3d,jarvis,high,mp-3615,3D
JVASP-57747,Al3 P3 O12,5.9527,8.3331,2.3804,jarvis_3d,jarvis,high,mp-3955,3D
JVASP-57748,O8 Al2 P2,5.7334,8.4814,2.748000000000001,jarvis_3d,jarvis,high,mp-4051,3D
JVASP-57750,O12 Ca8 Ir2,2.7655,2.7693,0.0038000000000000256,jarvis_3d,jarvis,high,mp-4100,3D
JVASP-57770,Rb4 Al4 F16,7.5403,10.1184,2.578099999999999,jarvis_3d,jarvis,high,mp-4693,3D
JVASP-57774,Ho4 Al4 O12,5.9808,7.3754,1.3945999999999996,jarvis_3d,jarvis,high,mp-4891,3D
JVASP-57777,K1 Ca1 F3,6.5362,10.1592,3.623,jarvis_3d,jarvis,high,mp-4950,3D
JVASP-57779,Mg4 S4 O16,6.1132,8.3629,2.2497,jarvis_3d,jarvis,high,mp-4967,3D
JVASP-57781,Ca2 Zn2 F8,5.4151,7.9988,2.5837000000000003,jarvis_3d,jarvis,high,mp-5104,3D
JVASP-57783,K4 Co2 S4,0.0205,0.023,0.0024999999999999988,jarvis_3d,jarvis,high,mp-5131,3D
JVASP-57785,Rb2 Al2 F8,7.5231,10.2661,2.7429999999999994,jarvis_3d,jarvis,high,mp-5259,3D
JVASP-57788,Al3 P3 O12,5.9533,8.3173,2.364,jarvis_3d,jarvis,high,mp-5331,3D
JVASP-57796,F6 Na3 Al1,6.258,11.0097,4.7517000000000005,jarvis_3d,jarvis,high,mp-5468,3D
JVASP-57797,Sr2 B8 O14,7.3523,8.8927,1.5404,jarvis_3d,jarvis,high,mp-5540,3D
JVASP-57799,Mg4 B4 O10,5.5559,7.383,1.8270999999999997,jarvis_3d,jarvis,high,mp-5547,3D
JVASP-57803,Pb2 Se4 O12,1.359,2.5078,1.1488,jarvis_3d,jarvis,high,mp-558163,3D
JVASP-57806,Ag3 S1 I1,0.8377,1.8198,0.9821000000000001,jarvis_3d,jarvis,high,mp-558189,3D
JVASP-57813,Ta1 Bi4 Cl1 O8,1.268,2.6591,1.3911,jarvis_3d,jarvis,high,mp-558314,3D
JVASP-57815,Ho6 O9,4.1361,5.6618,1.5257000000000005,jarvis_3d,jarvis,high,mp-558336,3D
JVASP-57819,Na4 Cr2 F8,0.0555,0.4524,0.39690000000000003,jarvis_3d,jarvis,high,mp-558383,3D
JVASP-57828,Ag4 Hg4 S4 I4,1.1603,2.1641,1.0037999999999998,jarvis_3d,jarvis,high,mp-558446,3D
JVASP-57843,Y6 O9,4.0948,5.2497,1.1548999999999996,jarvis_3d,jarvis,high,mp-558573,3D
JVASP-57852,K2 Na2 S2 O8,5.5059,8.8111,3.3052,jarvis_3d,jarvis,high,mp-558632,3D
JVASP-57860,Al2 P2 O8,5.6641,8.741,3.0768999999999993,jarvis_3d,jarvis,high,mp-5724,3D
JVASP-57870,Na4 O8,5.0883,7.5605,2.4722,jarvis_3d,jarvis,high,mp-614,3D
JVASP-57874,O8 U3,0.0013,0.0023,0.001,jarvis_3d,jarvis,high,mp-698,3D
JVASP-57876,B4 O6,8.8104,10.5413,1.7309,jarvis_3d,jarvis,high,mp-717,3D
JVASP-57877,Se8 Pr6,0.0041,0.0119,0.0078000000000000005,jarvis_3d,jarvis,high,mp-722,3D
JVASP-57883,O2 Ti12,0.0048,0.0066,0.0018000000000000004,jarvis_3d,jarvis,high,mp-882,3D
JVASP-57951,Y1 Cu3 Sn4 O12,0.8016,1.1315,0.32989999999999997,jarvis_3d,jarvis,high,mvc-1875,3D
JVASP-57967,Zn4 Co2 N4,0.0048,0.0293,0.0245,jarvis_3d,jarvis,high,mvc-2146,3D
JVASP-58128,Mg2 Ag4 O8,0.7296,1.0471,0.3174999999999999,jarvis_3d,jarvis,high,mvc-4630,3D
JVASP-58132,Zn2 Ag4 O8,0.0059,0.654,0.6481,jarvis_3d,jarvis,high,mvc-4660,3D
JVASP-58135,Ba1 Ti4 Zn1 O8,0.0033,0.0048,0.0014999999999999996,jarvis_3d,jarvis,high,mvc-477,3D
JVASP-58251,Ca4 F8,7.9855,9.508,1.522499999999999,jarvis_3d,jarvis,high,mp-10464,3D
JVASP-58253,Ba2 Al2 B2 O6 F4,6.6464,8.5571,1.9107000000000003,jarvis_3d,jarvis,high,mp-10510,3D
JVASP-58258,O8 F2 Na2 P2 Y2,5.9007,7.4634,1.5627000000000004,jarvis_3d,jarvis,high,mp-10804,3D
JVASP-58260,Si3 O6,5.6725,8.4825,2.8099999999999996,jarvis_3d,jarvis,high,mp-10851,3D
JVASP-58267,Si4 O8,5.8183,6.6922,0.8738999999999999,jarvis_3d,jarvis,high,mp-10948,3D
JVASP-58288,C4 O8,6.729,9.3129,2.5839000000000008,jarvis_3d,jarvis,high,mp-11725,3D
JVASP-58291,C4 O4,5.8101,7.3007,1.4905999999999997,jarvis_3d,jarvis,high,mp-11875,3D
JVASP-58316,O6 Mg2 Si2,6.3883,7.8277,1.4394,jarvis_3d,jarvis,high,mp-5924,3D
JVASP-58320,O12 Na2 Al2 Si4,5.6828,7.3576,1.6747999999999994,jarvis_3d,jarvis,high,mp-6124,3D
JVASP-58325,F14 Na4 Mg2 Al2,7.0658,11.1499,4.0841,jarvis_3d,jarvis,high,mp-6319,3D
JVASP-58340,O8 F2 Al2 Si2 Ca2,5.6051,7.6149,2.0097999999999994,jarvis_3d,jarvis,high,mp-6873,3D
JVASP-58345,Si3 O6,5.6725,8.1083,2.4357999999999995,jarvis_3d,jarvis,high,mp-6922,3D
JVASP-58347,Si4 O8,5.7383,8.1906,2.4523,jarvis_3d,jarvis,high,mp-6945,3D
JVASP-58348,Si2 O4,5.5724,6.3932,0.8208000000000002,jarvis_3d,jarvis,high,mp-6947,3D
JVASP-58349,Si3 O6,5.9852,8.0973,2.1121000000000008,jarvis_3d,jarvis,high,mp-7000,3D
JVASP-58354,Si4 O8,5.3089,9.1481,3.839199999999999,jarvis_3d,jarvis,high,mp-7087,3D
JVASP-58362,B4 O12 Al3 Nd1,5.3901,6.9152,1.5250999999999992,jarvis_3d,jarvis,high,mp-7337,3D
JVASP-58368,Be4 O4,7.6053,9.0089,1.4036000000000008,jarvis_3d,jarvis,high,mp-7599,3D
JVASP-58373,Na1 Al1 F4,6.0595,10.9736,4.9140999999999995,jarvis_3d,jarvis,high,mp-7723,3D
JVASP-58383,Al1 F3,7.8033,10.7965,2.9932,jarvis_3d,jarvis,high,mp-8039,3D
JVASP-58388,B2 O6 Al2,6.0732,7.8606,1.7873999999999999,jarvis_3d,jarvis,high,mp-8110,3D
JVASP-58394,O4 Si2,5.3171,8.47,3.1529000000000007,jarvis_3d,jarvis,high,mp-8352,3D
JVASP-58400,F6 K2 Hf1,7.48,9.6635,2.1835000000000004,jarvis_3d,jarvis,high,mp-8414,3D
JVASP-58403,K1 F1,7.1109,10.2074,3.0965,jarvis_3d,jarvis,high,mp-8454,3D
JVASP-58408,O8 F2 Na2 Al2 P2,5.9431,8.1089,2.1658,jarvis_3d,jarvis,high,mp-8678,3D
JVASP-58423,F6 K1 Sc1 Rb2,6.9856,7.6309,0.6452999999999998,jarvis_3d,jarvis,high,mp-9348,3D
JVASP-58424,F6 K1 Sc1 Rb2,6.8718,7.7729,0.9010999999999996,jarvis_3d,jarvis,high,mp-9349,3D
JVASP-58425,U4 Cr6 Si2,0.0013,0.004,0.0027,jarvis_3d,jarvis,high,mp-9394,3D
JVASP-58426,Si2 V8 Sb4,0.001,0.0015,0.0005,jarvis_3d,jarvis,high,mp-9398,3D
JVASP-58433,O10 Al4 Si2,6.1094,7.2335,1.1241000000000003,jarvis_3d,jarvis,high,mp-9515,3D
JVASP-58434,O10 Al4 Si2,5.893,7.4871,1.5941,jarvis_3d,jarvis,high,mp-9516,3D
JVASP-58463,Ti4 Al2 O8,0.0208,0.0269,0.006100000000000001,jarvis_3d,jarvis,high,mvc-10896,3D
JVASP-58532,Ca2 Ti4 O8,0.0003,0.0028,0.0025,jarvis_3d,jarvis,high,mvc-12415,3D
JVASP-58577,Mg2 Ni4 O8,0.0007,0.0062,0.0055,jarvis_3d,jarvis,high,mvc-6405,3D
JVASP-58579,Ca2 Co4 O8,0.0019,0.0045,0.0026,jarvis_3d,jarvis,high,mvc-6414,3D
JVASP-59552,Sm6 F18,5.6037,7.3576,1.7538999999999998,jarvis_3d,jarvis,high,mp-18690,3D
JVASP-59588,Yb4 Ni4 O12,0.0027,0.0097,0.007,jarvis_3d,jarvis,high,mp-19249,3D
JVASP-59592,O8 Cr4 Ni2,0.0043,0.0153,0.011,jarvis_3d,jarvis,high,mp-19303,3D
JVASP-59596,O8 Al2 W2,1.2115,1.7702,0.5587,jarvis_3d,jarvis,high,mp-19413,3D
JVASP-59606,O6 Nb1 Ba2 Yb1,3.3964,3.9947,0.5983,jarvis_3d,jarvis,high,mp-19751,3D
JVASP-59608,Fe11 Si5,0.0084,0.0118,0.0034000000000000002,jarvis_3d,jarvis,high,mp-19800,3D
JVASP-59609,Mn4 Co4 Si4,0.0002,0.0002,0.0,jarvis_3d,jarvis,high,mp-19809,3D
JVASP-59620,Sr4 Pr2 O8,3.9598,5.699,1.7391999999999999,jarvis_3d,jarvis,high,mp-19975,3D
JVASP-59633,Tb2 Ca2 F12,8.1591,10.3934,2.2342999999999993,jarvis_3d,jarvis,high,mp-20154,3D
JVASP-59640,U4 W4 C8,0.002,0.0051,0.0031000000000000003,jarvis_3d,jarvis,high,mp-20270,3D
JVASP-59659,Co2 Ge7 U3,0.0008,0.0011,0.00030000000000000003,jarvis_3d,jarvis,high,mp-20447,3D
JVASP-59666,Te8 U6,0.0063,0.0082,0.0019000000000000006,jarvis_3d,jarvis,high,mp-20520,3D
JVASP-59667,V8 P4,0.0039,0.0079,0.004000000000000001,jarvis_3d,jarvis,high,mp-20541,3D
JVASP-59670,C8 N8 K4 Cd2,6.0256,7.3105,1.2849000000000004,jarvis_3d,jarvis,high,mp-20623,3D
JVASP-59671,Pb4 O8,0.2652,0.476,0.2108,jarvis_3d,jarvis,high,mp-20633,3D
JVASP-59678,Al8 Mn4 U1,0.0007,0.0017,0.001,jarvis_3d,jarvis,high,mp-20704,3D
JVASP-59727,Fe8 N4,0.0027,0.003,0.0002999999999999999,jarvis_3d,jarvis,high,mp-21476,3D
JVASP-58854,Br12 Rb8 Cd2,3.212,5.082,1.8699999999999997,jarvis_3d,jarvis,high,mp-28315,3D
JVASP-58916,Tl4 B4 S12,1.6921,2.6472,0.9551000000000003,jarvis_3d,jarvis,high,mp-28809,3D
JVASP-58922,Cd8 O2 F12,1.9843,4.3186,2.3343,jarvis_3d,jarvis,high,mp-28855,3D
JVASP-58923,K8 Hg4 S8,2.0639,3.4026,1.3387000000000002,jarvis_3d,jarvis,high,mp-28859,3D
JVASP-58930,Ba2 Re2 H18,3.7585,4.8012,1.0426999999999995,jarvis_3d,jarvis,high,mp-28911,3D
JVASP-58959,Cd2 Au4 F16,1.9082,2.3057,0.39749999999999996,jarvis_3d,jarvis,high,mp-29169,3D
JVASP-58988,Na12 B4 P8,1.9708,2.7277,0.7568999999999999,jarvis_3d,jarvis,high,mp-29370,3D
JVASP-58994,Sb4 Cl12 F8,1.606,2.9703,1.3642999999999998,jarvis_3d,jarvis,high,mp-29391,3D
JVASP-59033,K8 Te4 S12,2.1268,3.3256,1.1988000000000003,jarvis_3d,jarvis,high,mp-29692,3D
JVASP-59042,Sr8 Pd2 O12,1.602,1.7994,0.19740000000000002,jarvis_3d,jarvis,high,mp-29775,3D
JVASP-59046,Ag8 Hg4 O8,0.0799,0.8498,0.7699,jarvis_3d,jarvis,high,mp-29816,3D
JVASP-59055,Li2 Sb6 O16,1.1171,1.6022,0.4851000000000001,jarvis_3d,jarvis,high,mp-29892,3D
JVASP-59059,Sr8 I12 O2,4.0416,5.0304,0.9888000000000003,jarvis_3d,jarvis,high,mp-29910,3D
JVASP-59062,Pb7 Br2 F12,4.16,5.1956,1.0355999999999996,jarvis_3d,jarvis,high,mp-29927,3D
JVASP-59074,Rb12 Br8 O2,1.6279,3.2735,1.6456,jarvis_3d,jarvis,high,mp-30005,3D
JVASP-59083,B18 N2 Mg2,1.777,2.0093,0.23230000000000017,jarvis_3d,jarvis,high,mp-30091,3D
JVASP-59088,Rb6 Os4 Br18,0.0782,0.6627,0.5844999999999999,jarvis_3d,jarvis,high,mp-30167,3D
JVASP-59130,H12 Li6 Al2,3.9276,5.4713,1.5437000000000003,jarvis_3d,jarvis,high,mp-31096,3D
JVASP-59131,O12 Ga2 Sm6,3.7296,5.5775,1.8478999999999997,jarvis_3d,jarvis,high,mp-31110,3D
JVASP-59132,O12 Ga2 Tb6,3.7138,5.823,2.1092000000000004,jarvis_3d,jarvis,high,mp-31112,3D
JVASP-59139,Tb4 Sc4 O12,4.442,5.3574,0.9154,jarvis_3d,jarvis,high,mp-31119,3D
JVASP-59141,Ho4 Sc4 O12,4.4805,5.3969,0.9163999999999994,jarvis_3d,jarvis,high,mp-31121,3D
JVASP-59147,Bi4 B4 O12,3.0339,4.5232,1.4893,jarvis_3d,jarvis,high,mp-31250,3D
JVASP-59198,O16 Mn4 Ba2,1.7719,1.9482,0.1762999999999999,jarvis_3d,jarvis,high,mp-31918,3D
JVASP-59246,Ta4 Ga4 O16,3.1958,4.4789,1.2831000000000001,jarvis_3d,jarvis,high,mp-33508,3D
JVASP-59253,Dy4 O14 Ti4,2.747,3.1146,0.3675999999999999,jarvis_3d,jarvis,high,mp-34322,3D
JVASP-59258,Hf4 O14 Sm4,3.8097,5.4266,1.6168999999999998,jarvis_3d,jarvis,high,mp-35249,3D
JVASP-59263,Li10 Ga2 O8,3.8821,5.3481,1.4659999999999997,jarvis_3d,jarvis,high,mp-37207,3D
JVASP-43142,Li2 V6 O16,1.4182,1.777,0.3588,jarvis_3d,jarvis,high,mp-775075,3D
JVASP-43175,Li4 Fe3 O8,0.0027,0.0037,0.001,jarvis_3d,jarvis,high,mp-775127,3D
JVASP-43369,Ag4 P4 O12,2.1377,3.3212,1.1835,jarvis_3d,jarvis,high,mp-775762,3D
JVASP-43396,Sr2 Nb6 N2 O14,1.5138,1.8471,0.33329999999999993,jarvis_3d,jarvis,high,mp-775922,3D
JVASP-60623,Ge6 Sb4 O18,3.0368,4.9598,1.9230000000000005,jarvis_3d,jarvis,high,mp-17708,3D
JVASP-60627,Te6 U2,0.0008,0.0013,0.0004999999999999999,jarvis_3d,jarvis,high,mp-22231,3D
JVASP-60637,V8 O20,1.8429,2.2594,0.41649999999999987,jarvis_3d,jarvis,high,mp-25643,3D
JVASP-60657,In4 Te4 I4,1.4271,2.2597,0.8326,jarvis_3d,jarvis,high,mp-29234,3D
JVASP-60667,Cu4 Te8 Cl4,0.0486,0.4838,0.43520000000000003,jarvis_3d,jarvis,high,mp-30971,3D
JVASP-60671,O8 Cl2 Co1,3.2203,4.5978,1.3775000000000004,jarvis_3d,jarvis,high,mp-31621,3D
JVASP-60687,Ba1 Sb2 F12,4.6045,6.2302,1.6257000000000001,jarvis_3d,jarvis,high,mp-554765,3D
JVASP-60703,Hg8 I16,1.0453,2.0996,1.0543000000000002,jarvis_3d,jarvis,high,mp-567471,3D
JVASP-60771,Co2 O4,0.0017,0.0026,0.0009,jarvis_3d,jarvis,high,mp-782689,3D
JVASP-60794,B2 Ca1 H10 N2,3.8103,5.5883,1.7780000000000005,jarvis_3d,jarvis,high,auid-01b8499b8bba44df,3D
JVASP-60798,B28,1.6416,1.9459,0.3043,jarvis_3d,jarvis,high,auid-0259d68674b800c3,3D
JVASP-60808,Fe4 B8,0.0223,0.3825,0.3602,jarvis_3d,jarvis,high,auid-0361058f418da352,3D
JVASP-60915,B4 C2 Ca4 H6 Mg1 O18,4.6843,6.9568,2.2725,jarvis_3d,jarvis,high,auid-118e55383622ad35,3D
JVASP-60924,K4 P2 Au2 S8,1.3713,2.3608,0.9894999999999998,jarvis_3d,jarvis,high,auid-12f587b708c648f0,3D
JVASP-60927,K12 As4 Se16,1.1015,2.1229,1.0214,jarvis_3d,jarvis,high,auid-134f09989090f022,3D
JVASP-60941,Te4 As4 H4 O20,3.165,4.7578,1.5927999999999995,jarvis_3d,jarvis,high,auid-161a646146669ff6,3D
JVASP-60966,Au2 N24 Rb2,1.4747,1.6239,0.1492,jarvis_3d,jarvis,high,auid-18c521390914a2e9,3D
JVASP-61086,Ca4 Si4 B4 H4 O20,5.6268,7.8037,2.1769,jarvis_3d,jarvis,high,auid-29b96b91e46e74a5,3D
JVASP-61096,Co1 As2 O6,0.0113,0.014,0.002700000000000001,jarvis_3d,jarvis,high,auid-2bf2603e574aa6bf,3D
JVASP-61109,Al1 Be1 Cl1 Na4 O12 Si4,4.7663,7.6511,2.8847999999999994,jarvis_3d,jarvis,high,auid-2d8d5cd47234f604,3D
JVASP-61120,Al4 Hg2 Se8,0.4712,1.3619,0.8907,jarvis_3d,jarvis,high,auid-2f36d8e6ad9e8324,3D
JVASP-61193,Au2 Ho2,0.0031,0.0063,0.0032,jarvis_3d,jarvis,high,auid-3ab008e9f00045f6,3D
JVASP-61252,Cd1 As2 O6,2.1209,3.6901,1.5692000000000004,jarvis_3d,jarvis,high,auid-4458862d1576aeee,3D
JVASP-61265,B4 Ni4 Tb2,0.003,0.0077,0.0047,jarvis_3d,jarvis,high,auid-466c68f6ef7e7fb0,3D