material_id,formula,pbe_bandgap,hse_bandgap,bandgap_correction,dataset,data_source,confidence,mpid,dimensionality
JVASP-18406,H2 Sm1,0.0395,0.0669,0.0274,jarvis_3d,jarvis,high,mp-24658,3D
JVASP-18412,H2 Ta1,0.0046,0.0062,0.0015999999999999999,jarvis_3d,jarvis,high,mp-24723,3D
JVASP-18414,H2 Ti1,0.0009,0.0016,0.0007000000000000001,jarvis_3d,jarvis,high,mp-24726,3D
JVASP-18415,H2 Tm1,0.0205,0.0428,0.022299999999999997,jarvis_3d,jarvis,high,mp-24727,3D
JVASP-18419,W6 O2,0.0033,0.0043,0.001,jarvis_3d,jarvis,high,mp-25174,3D
JVASP-18427,Co1 H2 O2,0.0066,0.0109,0.0043,jarvis_3d,jarvis,high,mp-25489,3D
JVASP-18428,O2 Cr1,0.0042,0.0133,0.0091,jarvis_3d,jarvis,high,mp-25499,3D
JVASP-18433,Li1 Ni1 O2,0.0034,0.0165,0.0131,jarvis_3d,jarvis,high,mp-25592,3D
JVASP-18441,N2 Bi1 U2,0.0012,0.0022,0.0010000000000000002,jarvis_3d,jarvis,high,mp-27468,3D
JVASP-18443,P2 S2 Nb2,0.0022,0.0022,0.0,jarvis_3d,jarvis,high,mp-27471,3D
JVASP-18446,S4 Cr2 Ni1,0.0064,0.0123,0.0059,jarvis_3d,jarvis,high,mp-27512,3D
JVASP-18457,B4 Cr1,0.0017,0.013,0.0113,jarvis_3d,jarvis,high,mp-27710,3D
JVASP-18459,H2 Hf1,0.0089,0.0092,0.0002999999999999999,jarvis_3d,jarvis,high,mp-27731,3D
JVASP-18461,U2 Br2 N2,0.004,0.0072,0.0031999999999999997,jarvis_3d,jarvis,high,mp-27762,3D
JVASP-18468,K2 Br6 Os1,1.6406,2.0523,0.41169999999999973,jarvis_3d,jarvis,high,mp-27835,3D
JVASP-18469,Na6 Bi2,0.0942,0.5785,0.4843,jarvis_3d,jarvis,high,mp-27838,3D
JVASP-18476,O1 Bi1,0.0025,0.0043,0.0018,jarvis_3d,jarvis,high,mp-27945,3D
JVASP-18509,S1 Ag8,0.0072,0.0096,0.0023999999999999994,jarvis_3d,jarvis,high,mp-28963,3D
JVASP-18513,V2 Se2,0.0021,0.0049,0.0028,jarvis_3d,jarvis,high,mp-29131,3D
JVASP-18525,Br6 Rb2 W1,0.0139,0.0205,0.006600000000000002,jarvis_3d,jarvis,high,mp-29481,3D
JVASP-18532,Ca1 Mn2 Bi2,0.0109,0.0127,0.0017999999999999995,jarvis_3d,jarvis,high,mp-29615,3D
JVASP-18542,Dy3 Al1 C1,0.0359,0.0483,0.012400000000000001,jarvis_3d,jarvis,high,mp-29676,3D
JVASP-18551,Mn1 Se2 Rb1,0.0007,0.007,0.0063,jarvis_3d,jarvis,high,mp-29744,3D
JVASP-18587,Sc1 Ag2 In1,0.0237,0.0247,0.0010000000000000009,jarvis_3d,jarvis,high,mp-30347,3D
JVASP-18593,Sc1 Ag4,0.0029,0.0144,0.0115,jarvis_3d,jarvis,high,mp-30354,3D
JVASP-18595,Ag2 Tm1,0.0004,0.0076,0.0072,jarvis_3d,jarvis,high,mp-30359,3D
JVASP-18604,Er1 Au1 Pb1,0.0988,0.1373,0.038500000000000006,jarvis_3d,jarvis,high,mp-30377,3D
JVASP-18607,Hf2 Au1,0.0095,0.0136,0.0040999999999999995,jarvis_3d,jarvis,high,mp-30383,3D
JVASP-18611,Ho1 Au1 Pb1,0.0803,0.1371,0.0568,jarvis_3d,jarvis,high,mp-30389,3D
JVASP-18613,In1 Lu1 Au2,0.0029,0.0061,0.0032000000000000006,jarvis_3d,jarvis,high,mp-30393,3D
JVASP-18616,Li2 Sb1 Au1,0.0048,0.0116,0.0068,jarvis_3d,jarvis,high,mp-30404,3D
JVASP-18621,Tb1 Au1 Pb1,0.0538,0.1347,0.08089999999999999,jarvis_3d,jarvis,high,mp-30413,3D
JVASP-18624,Sn1 Au2 U1,0.002,0.003,0.001,jarvis_3d,jarvis,high,mp-30419,3D
JVASP-18633,Dy1 Pt1 Bi1,0.0734,0.1109,0.03749999999999999,jarvis_3d,jarvis,high,mp-30453,3D
JVASP-18634,Er1 Pt1 Bi1,0.0975,0.1383,0.0408,jarvis_3d,jarvis,high,mp-30454,3D
JVASP-18635,Ho1 Pt1 Bi1,0.0827,0.1391,0.056400000000000006,jarvis_3d,jarvis,high,mp-30455,3D
JVASP-18643,Ca3 Pb1,0.0565,0.0955,0.039,jarvis_3d,jarvis,high,mp-30479,3D
JVASP-18645,Ca3 Tl1,0.0189,0.0263,0.0074,jarvis_3d,jarvis,high,mp-30482,3D
JVASP-18654,Tb1 Cd2,0.0024,0.0045,0.0021,jarvis_3d,jarvis,high,mp-30497,3D
JVASP-18656,Ti2 Cd2,0.0057,0.0061,0.0004000000000000002,jarvis_3d,jarvis,high,mp-30500,3D
JVASP-18657,Ti2 Cd1,0.0015,0.0018,0.0002999999999999999,jarvis_3d,jarvis,high,mp-30501,3D
JVASP-18664,V5 Sb4,0.0042,0.0822,0.078,jarvis_3d,jarvis,high,mp-30536,3D
JVASP-18665,Fe1 Co2 Ga1,0.0076,0.0197,0.0121,jarvis_3d,jarvis,high,mp-30551,3D
JVASP-18667,Co2 Ga1 Ta1,0.0055,0.03,0.0245,jarvis_3d,jarvis,high,mp-30555,3D
JVASP-18672,Ti4 Co2,0.0146,0.0315,0.0169,jarvis_3d,jarvis,high,mp-30566,3D
JVASP-18673,Cr1 Fe2 Ga1,0.0027,0.0331,0.030399999999999996,jarvis_3d,jarvis,high,mp-30570,3D
JVASP-18678,Cu1 Hf2,0.0012,0.0016,0.0004000000000000002,jarvis_3d,jarvis,high,mp-30581,3D
JVASP-18688,Cu1 Rh2 Sn1,0.071,0.071,0.0,jarvis_3d,jarvis,high,mp-30595,3D
JVASP-18693,Pd2 In1 Dy1,0.0098,0.0178,0.008,jarvis_3d,jarvis,high,mp-30606,3D
JVASP-18696,Sn4 Er2,0.0025,0.003,0.0005,jarvis_3d,jarvis,high,mp-30613,3D
JVASP-18706,Ti1 Ni2 Ga1,0.0253,0.0314,0.006099999999999998,jarvis_3d,jarvis,high,mp-30657,3D
JVASP-18711,Ti6 Ga2,0.0064,0.0082,0.0018000000000000004,jarvis_3d,jarvis,high,mp-30672,3D
JVASP-18722,Ho1 In1,0.0019,0.0063,0.0044,jarvis_3d,jarvis,high,mp-30728,3D
JVASP-18723,Pd2 Sn1 Ho1,0.0329,0.0352,0.0023000000000000034,jarvis_3d,jarvis,high,mp-30731,3D
JVASP-18741,Mg1 Ni2 Sb1,0.0173,0.0256,0.008300000000000002,jarvis_3d,jarvis,high,mp-30773,3D
JVASP-18761,Ni4 W1,0.001,0.0016,0.0006000000000000001,jarvis_3d,jarvis,high,mp-30811,3D
JVASP-18767,Li2 Al1 Rh1,0.0214,0.0568,0.0354,jarvis_3d,jarvis,high,mp-30820,3D
JVASP-18771,V6 Pb2,0.0141,0.0258,0.0117,jarvis_3d,jarvis,high,mp-30830,3D
JVASP-18781,Ta2 Pt6,0.0066,0.0125,0.005900000000000001,jarvis_3d,jarvis,high,mp-30850,3D
JVASP-18795,Tb1 Tl1,0.0028,0.013,0.010199999999999999,jarvis_3d,jarvis,high,mp-30878,3D
JVASP-18803,Sc3 In1 N1,0.032,0.0661,0.034100000000000005,jarvis_3d,jarvis,high,mp-31055,3D
JVASP-18808,Al2 Si2 Y2,0.0082,0.0142,0.006,jarvis_3d,jarvis,high,mp-31080,3D
JVASP-18815,Yb1 Au1 Bi1,0.0033,0.0043,0.001,jarvis_3d,jarvis,high,mp-31142,3D
JVASP-18817,Ca3 Sb1 N1,0.2121,0.3465,0.13439999999999996,jarvis_3d,jarvis,high,mp-31157,3D
JVASP-18823,Al3 Dy1,0.0013,0.0013,0.0,jarvis_3d,jarvis,high,mp-31178,3D
JVASP-18825,Al2 Fe4,0.0014,0.0086,0.0072,jarvis_3d,jarvis,high,mp-31184,3D
JVASP-18829,Si2 Ag2 Nd1,0.0018,0.015,0.0132,jarvis_3d,jarvis,high,mp-31204,3D
JVASP-18837,Mn1 Pd2 In1,0.0007,0.0059,0.0052,jarvis_3d,jarvis,high,mp-31328,3D
JVASP-18838,In1 Pd3,0.0435,0.0693,0.025800000000000003,jarvis_3d,jarvis,high,mp-31337,3D
JVASP-18846,Pr2 Sn2 Au2,0.0069,0.0473,0.040400000000000005,jarvis_3d,jarvis,high,mp-31412,3D
JVASP-18851,Tb2 Ag2 Sn2,0.0083,0.1166,0.1083,jarvis_3d,jarvis,high,mp-31422,3D
JVASP-18863,Ni1 Zr1 Bi1,0.0276,0.0565,0.028900000000000002,jarvis_3d,jarvis,high,mp-31452,3D
JVASP-18864,Nb1 Rh1 Sb1,0.0105,0.0126,0.0020999999999999994,jarvis_3d,jarvis,high,mp-31453,3D
JVASP-18868,Co1 Sb1 Ta1,0.0158,0.0228,0.006999999999999999,jarvis_3d,jarvis,high,mp-31459,3D
JVASP-18889,O1 Zr1,0.0214,0.0732,0.0518,jarvis_3d,jarvis,high,mp-33088,3D
JVASP-18912,Y1 Mg1,0.0059,0.0492,0.0433,jarvis_3d,jarvis,high,mp-615,3D
JVASP-18921,P1 Tb1,0.1155,0.2994,0.1839,jarvis_3d,jarvis,high,mp-645,3D
JVASP-18923,Nb2 S2,0.0011,0.0145,0.0134,jarvis_3d,jarvis,high,mp-647,3D
JVASP-18925,Be5 Pd1,0.0385,0.0502,0.011700000000000002,jarvis_3d,jarvis,high,mp-650,3D
JVASP-18945,P1 Sm1,0.1459,0.302,0.1561,jarvis_3d,jarvis,high,mp-710,3D
JVASP-18952,Cr6 Si2,0.007,0.0139,0.006899999999999999,jarvis_3d,jarvis,high,mp-729,3D
JVASP-18958,P1 Ho1,0.1283,0.3027,0.17440000000000003,jarvis_3d,jarvis,high,mp-744,3D
JVASP-19588,Nb3 Si1,0.0149,0.0195,0.0046,jarvis_3d,jarvis,high,mp-1004,3D
JVASP-19589,Sb1 Dy1,0.1312,0.1784,0.04719999999999999,jarvis_3d,jarvis,high,mp-1007,3D
JVASP-19610,Nd1 Zn1,0.0041,0.0174,0.0133,jarvis_3d,jarvis,high,mp-1053,3D
JVASP-19612,Se1 Cd1,0.1412,0.7825,0.6413,jarvis_3d,jarvis,high,mp-1055,3D
JVASP-19620,Tb1 Co5,0.0121,0.0125,0.00040000000000000105,jarvis_3d,jarvis,high,mp-1200,3D
JVASP-19622,Al4 Er2,0.0052,0.0117,0.006500000000000001,jarvis_3d,jarvis,high,mp-1208,3D
JVASP-19624,Sc1 Cd1,0.0033,0.0076,0.0043,jarvis_3d,jarvis,high,mp-1211,3D
JVASP-19628,Ba1 Ga2,0.0026,0.0113,0.0087,jarvis_3d,jarvis,high,mp-1219,3D
JVASP-19634,Ti2 Ir2,0.0015,0.0019,0.00039999999999999996,jarvis_3d,jarvis,high,mp-1235,3D
JVASP-19637,S1 Ho1,0.0046,0.0153,0.0107,jarvis_3d,jarvis,high,mp-1240,3D
JVASP-19638,Fe4 C1,0.0006,0.0078,0.0072,jarvis_3d,jarvis,high,mp-1246,3D
JVASP-19640,V2 Rh2,0.0011,0.0023,0.0012,jarvis_3d,jarvis,high,mp-1251,3D
JVASP-19641,Zr1 Be2,0.0258,0.0366,0.0108,jarvis_3d,jarvis,high,mp-1252,3D
JVASP-19652,Si2 Mo6,0.001,0.0126,0.0116,jarvis_3d,jarvis,high,mp-1275,3D
JVASP-19655,Te1 Er1,0.0032,0.0081,0.0049,jarvis_3d,jarvis,high,mp-1280,3D
JVASP-19657,C1 V1,0.0113,0.0121,0.0008000000000000004,jarvis_3d,jarvis,high,mp-1282,3D
JVASP-19662,Si1 Pt2,0.0081,0.0119,0.0038000000000000013,jarvis_3d,jarvis,high,mp-1299,3D
JVASP-19675,As4 Mo2,0.0012,0.0014,0.0002000000000000001,jarvis_3d,jarvis,high,mp-1337,3D
JVASP-19694,V1 Ru1,0.0036,0.0071,0.0035000000000000005,jarvis_3d,jarvis,high,mp-1395,3D
JVASP-19698,Ni4 Sm2,0.0218,0.0312,0.009399999999999999,jarvis_3d,jarvis,high,mp-1402,3D
JVASP-19701,Mn1 Te1,0.0007,0.014,0.013300000000000001,jarvis_3d,jarvis,high,mp-1406,3D
JVASP-19703,Ti6 Sb2,0.0059,0.015,0.0091,jarvis_3d,jarvis,high,mp-1412,3D
JVASP-19704,F4 Nb1,0.0006,0.0061,0.0055000000000000005,jarvis_3d,jarvis,high,mp-1416,3D
JVASP-19706,C2 Ho1,0.0049,0.0083,0.0034000000000000002,jarvis_3d,jarvis,high,mp-1423,3D
JVASP-19711,Be2 B1,0.0043,0.0054,0.0011000000000000003,jarvis_3d,jarvis,high,mp-1432,3D
JVASP-19725,S1 Sc1,0.003,0.0065,0.0034999999999999996,jarvis_3d,jarvis,high,mp-1476,3D
JVASP-19726,Sn1 Te1,0.0128,0.0173,0.004499999999999999,jarvis_3d,jarvis,high,mp-1481,3D
JVASP-19738,Te1 Ce1,0.0002,0.0003,9.999999999999996e-05,jarvis_3d,jarvis,high,mp-1525,3D
JVASP-19739,Ti2 Hg2,0.0022,0.0044,0.0022,jarvis_3d,jarvis,high,mp-1526,3D
JVASP-19745,Tb1 Si2,0.0231,0.0307,0.007600000000000003,jarvis_3d,jarvis,high,mp-1535,3D
JVASP-19746,Zr1 Te1,0.0151,0.0279,0.0128,jarvis_3d,jarvis,high,mp-1539,3D
JVASP-19747,Ho1 Tl1,0.0029,0.0125,0.009600000000000001,jarvis_3d,jarvis,high,mp-1540,3D
JVASP-19755,V6 Sb2,0.0091,0.028,0.0189,jarvis_3d,jarvis,high,mp-1555,3D
JVASP-19759,Se1 Tb1,0.011,0.0186,0.007599999999999999,jarvis_3d,jarvis,high,mp-1561,3D
JVASP-19760,Si2 Ca2,0.0005,0.0057,0.0052,jarvis_3d,jarvis,high,mp-1563,3D
JVASP-19767,N1 Nb1,0.0009,0.0267,0.0258,jarvis_3d,jarvis,high,mp-1580,3D
JVASP-19770,Sb1 Nd1,0.039,0.2002,0.16119999999999998,jarvis_3d,jarvis,high,mp-1586,3D
JVASP-19778,S1 Tb1,0.0063,0.0072,0.0008999999999999998,jarvis_3d,jarvis,high,mp-1610,3D
JVASP-19779,O1 Sm1,0.0045,0.0146,0.010100000000000001,jarvis_3d,jarvis,high,mp-1611,3D
JVASP-19792,Fe3 Pt1,0.0005,0.0014,0.0009,jarvis_3d,jarvis,high,mp-1649,3D
JVASP-19798,Er1 Zn1,0.0058,0.0062,0.0004000000000000002,jarvis_3d,jarvis,high,mp-1660,3D
JVASP-19803,Yb1 Au2,0.0053,0.0091,0.0038000000000000004,jarvis_3d,jarvis,high,mp-1668,3D
JVASP-19804,Mn2 Pt2,0.0014,0.0028,0.0014,jarvis_3d,jarvis,high,mp-1670,3D
JVASP-19805,Yb1 Si2,0.0014,0.0038,0.0024000000000000002,jarvis_3d,jarvis,high,mp-1671,3D
JVASP-19810,As1 Er1,0.2294,0.243,0.013600000000000001,jarvis_3d,jarvis,high,mp-1688,3D
JVASP-19836,Tm1 B2,0.014,0.045,0.031,jarvis_3d,jarvis,high,mp-800,3D
JVASP-19842,Ni2 Sb2,0.0209,0.026,0.0051,jarvis_3d,jarvis,high,mp-810,3D
JVASP-19848,Si4 Rh4,0.0036,0.0045,0.0008999999999999998,jarvis_3d,jarvis,high,mp-818,3D
JVASP-19850,Se1 Hg1,0.278,0.911,0.633,jarvis_3d,jarvis,high,mp-820,3D
JVASP-19851,Ti1 Co1,0.0036,0.0074,0.0038000000000000004,jarvis_3d,jarvis,high,mp-823,3D
JVASP-19854,Al1 Pd1,0.0124,0.023,0.0106,jarvis_3d,jarvis,high,mp-829,3D
JVASP-19855,Ho1 Pd1,0.0019,0.006,0.0041,jarvis_3d,jarvis,high,mp-832,3D
JVASP-19861,Rh4 Sm2,0.0024,0.005,0.0026000000000000003,jarvis_3d,jarvis,high,mp-840,3D
JVASP-19863,Sc2 Ni4,0.0153,0.0208,0.0055,jarvis_3d,jarvis,high,mp-850,3D
JVASP-19866,Al4 Tm2,0.0029,0.0068,0.0039,jarvis_3d,jarvis,high,mp-858,3D
JVASP-19874,V1 Pd3,0.003,0.0031,9.999999999999983e-05,jarvis_3d,jarvis,high,mp-873,3D
JVASP-19885,In1 Rh1,0.0104,0.0112,0.0008000000000000004,jarvis_3d,jarvis,high,mp-899,3D
JVASP-19888,Cr4 Zr2,0.024,0.0374,0.013400000000000002,jarvis_3d,jarvis,high,mp-903,3D
JVASP-19889,C1 Nb1,0.0149,0.0221,0.0072000000000000015,jarvis_3d,jarvis,high,mp-910,3D
JVASP-19907,Al1 B2,0.0053,0.0115,0.0062,jarvis_3d,jarvis,high,mp-944,3D
JVASP-19912,Mo1 Pt2,0.0003,0.0003,0.0,jarvis_3d,jarvis,high,mp-952,3D
JVASP-19917,Cr6 Rh2,0.0016,0.0067,0.0051,jarvis_3d,jarvis,high,mp-958,3D
JVASP-19921,Tb1 B2,0.0191,0.0284,0.009300000000000003,jarvis_3d,jarvis,high,mp-965,3D
JVASP-19923,Mn1 Se1,0.0153,0.0169,0.001599999999999999,jarvis_3d,jarvis,high,mp-972,3D
JVASP-19934,Dy1 Si2,0.0008,0.0016,0.0008,jarvis_3d,jarvis,high,mp-993,3D
JVASP-19949,Rh4 Lu2,0.0059,0.013,0.0070999999999999995,jarvis_3d,jarvis,high,mp-1728,3D
JVASP-19956,S1 Nd1,0.0189,0.0193,0.00040000000000000105,jarvis_3d,jarvis,high,mp-1748,3D
JVASP-19959,Ho1 Si2,0.0042,0.0101,0.0059,jarvis_3d,jarvis,high,mp-1752,3D
JVASP-19960,As1 Th1,0.0179,0.0187,0.0008000000000000021,jarvis_3d,jarvis,high,mp-1753,3D
JVASP-19964,Lu2 Ir4,0.0009,0.0078,0.0069,jarvis_3d,jarvis,high,mp-1761,3D
JVASP-19966,S1 Tm1,0.0064,0.0083,0.0018999999999999998,jarvis_3d,jarvis,high,mp-1766,3D
JVASP-19975,Sb1 Pr1,0.2188,0.2955,0.07669999999999999,jarvis_3d,jarvis,high,mp-1785,3D
JVASP-19976,Ti6 Au2,0.0021,0.0305,0.028399999999999998,jarvis_3d,jarvis,high,mp-1786,3D
JVASP-19977,Mg3 Nd1,0.0075,0.0409,0.0334,jarvis_3d,jarvis,high,mp-1787,3D
JVASP-19981,Co4 Ta2,0.0082,0.0227,0.0145,jarvis_3d,jarvis,high,mp-1799,3D
JVASP-20477,Cu4 Te2,0.0296,0.0337,0.0040999999999999995,jarvis_3d,jarvis,high,mp-1861,3D
JVASP-20504,Zn1 Ag1,0.019,0.0351,0.0161,jarvis_3d,jarvis,high,mp-1912,3D
JVASP-20512,S1 Zr1,0.0026,0.006,0.0034000000000000002,jarvis_3d,jarvis,high,mp-1925,3D
JVASP-20528,Ti2 Ag2,0.0022,0.0076,0.0054,jarvis_3d,jarvis,high,mp-1961,3D
JVASP-20578,Pr3 Al1,0.0069,0.009,0.0020999999999999994,jarvis_3d,jarvis,high,mp-2093,3D
JVASP-20596,Er1 Si2,0.0145,0.0174,0.002899999999999998,jarvis_3d,jarvis,high,mp-2145,3D
JVASP-20615,B2 Pt2,0.0033,0.0163,0.012999999999999998,jarvis_3d,jarvis,high,mp-2192,3D
JVASP-20636,Nb1 S1,0.0015,0.0208,0.019299999999999998,jarvis_3d,jarvis,high,mp-2243,3D
JVASP-20641,Sc2 Ir4,0.008,0.0126,0.0046,jarvis_3d,jarvis,high,mp-2263,3D
JVASP-20643,Co4 Tb2,0.0032,0.0049,0.0016999999999999997,jarvis_3d,jarvis,high,mp-2265,3D
JVASP-20647,Te1 U1,0.0061,0.0079,0.0018000000000000004,jarvis_3d,jarvis,high,mp-2269,3D
JVASP-20649,Ag3 Sb1,0.0017,0.0091,0.0074,jarvis_3d,jarvis,high,mp-2273,3D
JVASP-21197,Yb1,0.0354,0.0378,0.0023999999999999994,jarvis_3d,jarvis,high,mp-162,3D
JVASP-21204,K1,0.0464,0.0494,0.0030000000000000027,jarvis_3d,jarvis,high,mp-58,3D
JVASP-41730,K2 Nd2 Ge2 S8,2.2719,3.2476,0.9756999999999998,jarvis_3d,jarvis,high,mp-861866,3D
JVASP-41753,Rb6 Ge2 P2 Se14,1.4575,2.3269,0.8694000000000002,jarvis_3d,jarvis,high,mp-861898,3D
JVASP-41787,K2 Na2 Pr2 Ta2 O10,3.4989,5.4505,1.9516,jarvis_3d,jarvis,high,mp-861944,3D
JVASP-41798,K2 Na2 Sm2 Ta2 O10,3.6447,5.7784,2.1337000000000006,jarvis_3d,jarvis,high,mp-861957,3D
JVASP-41803,Ba1 Sb2 F12,4.6052,6.2308,1.6256000000000004,jarvis_3d,jarvis,high,mp-861962,3D
JVASP-41962,Ba2 Ga2 O5,0.3356,2.0984,1.7628,jarvis_3d,jarvis,high,mp-862682,3D
JVASP-41051,Nd6 Si2 Ag2 S14,1.7501,2.525,0.7748999999999999,jarvis_3d,jarvis,high,mp-864666,3D
JVASP-41065,Ho2 Co1 Os1,0.0237,0.0283,0.0046,jarvis_3d,jarvis,high,mp-864696,3D
JVASP-41602,Na2 Hf2 O5,2.1503,4.8021,2.6518,jarvis_3d,jarvis,high,mp-865500,3D
JVASP-41608,V1 Si1 Os2,0.0048,0.0113,0.0065,jarvis_3d,jarvis,high,mp-865506,3D
JVASP-41629,Ti2 Ni1 Ir1,0.01,0.0233,0.013300000000000001,jarvis_3d,jarvis,high,mp-865529,3D
JVASP-39789,Lu1 Mg1 Au2,0.0149,0.017,0.002100000000000001,jarvis_3d,jarvis,high,mp-865861,3D
JVASP-39875,Ir2 Cl6,0.0093,0.5813,0.5720000000000001,jarvis_3d,jarvis,high,mp-865956,3D
JVASP-40072,Li2 Pr1 In1,0.015,0.0225,0.0075,jarvis_3d,jarvis,high,mp-866196,3D
JVASP-40102,Yb2 Mo2 Cl2 O8,2.2894,3.7563,1.4668999999999999,jarvis_3d,jarvis,high,mp-866267,3D
JVASP-40123,Er1 Ta1 Os2,0.0168,0.0838,0.067,jarvis_3d,jarvis,high,mp-866299,3D
JVASP-40150,Ca2 Sn2 S6,0.0146,0.836,0.8214,jarvis_3d,jarvis,high,mp-866519,3D
JVASP-40153,Ca2 Sn1 S4,1.0103,1.8752,0.8649,jarvis_3d,jarvis,high,mp-866522,3D
JVASP-40171,K4 Si4 Bi4 S16,1.9851,2.5871,0.6019999999999999,jarvis_3d,jarvis,high,mp-866651,3D
JVASP-40176,K6 Ta2 F16,3.5471,4.5035,0.9563999999999999,jarvis_3d,jarvis,high,mp-866663,3D
JVASP-40827,Hf1 Pt1 Pb1,0.0193,0.0364,0.0171,jarvis_3d,jarvis,high,mp-961715,3D
JVASP-39189,Sb4 S4 I4,1.4161,2.0048,0.5887,jarvis_3d,jarvis,high,mp-973217,3D
JVASP-38173,Rb4 H4 C4 O10,3.4306,4.65,1.2194000000000003,jarvis_3d,jarvis,high,mp-974667,3D
JVASP-38251,Rb4 Be4 H12,3.1405,5.6466,2.5061000000000004,jarvis_3d,jarvis,high,mp-975031,3D
JVASP-38272,Rb2 Tc2 O8,3.4805,3.9093,0.42879999999999985,jarvis_3d,jarvis,high,mp-975115,3D
JVASP-38321,Rb1 Fe2 As2,0.0064,0.009,0.002599999999999999,jarvis_3d,jarvis,high,mp-975359,3D
JVASP-38599,K2 P4 Au2 S14,1.515,1.9068,0.39180000000000015,jarvis_3d,jarvis,high,mp-976587,3D
JVASP-38613,H8 C2 N4 O2,5.166,7.1428,1.9768,jarvis_3d,jarvis,high,mp-976707,3D
JVASP-38639,Ni3 Au1,0.0007,0.0031,0.0024,jarvis_3d,jarvis,high,mp-976818,3D
JVASP-38661,Ni6 Sb2,0.0044,0.0063,0.0018999999999999998,jarvis_3d,jarvis,high,mp-976893,3D
JVASP-38678,Na1 Pd3,0.0058,0.0182,0.012400000000000001,jarvis_3d,jarvis,high,mp-976971,3D
JVASP-38012,Ba3 Si6 N2 O12,4.8,7.0154,2.2154,jarvis_3d,jarvis,high,mp-985697,3D
JVASP-38110,Rb2 Br1 Cl6 F1,1.0189,1.234,0.21510000000000007,jarvis_3d,jarvis,high,mp-989573,3D
JVASP-38113,Y2 W2 N6,1.594,2.014,0.4199999999999997,jarvis_3d,jarvis,high,mp-989576,3D
JVASP-38127,Ca6 Sn2 N1 F1,0.2499,0.356,0.10609999999999997,jarvis_3d,jarvis,high,mp-989590,3D
JVASP-38128,K2 Br1 Cl6 F1,1.0282,1.2281,0.19989999999999997,jarvis_3d,jarvis,high,mp-989591,3D
JVASP-12880,Na2 Sb2 Cl12,1.8604,3.1958,1.3354000000000001,jarvis_3d,jarvis,high,mp-28177,3D
JVASP-12884,Tl4 Sb4 S8,1.3593,1.8556,0.49629999999999996,jarvis_3d,jarvis,high,mp-28230,3D
JVASP-12885,O10 Mg2 Ti4,2.7282,3.2235,0.49529999999999985,jarvis_3d,jarvis,high,mp-28232,3D
JVASP-12889,O6 Na8 Sn2,1.9867,3.6557,1.669,jarvis_3d,jarvis,high,mp-28261,3D
JVASP-12890,H6 O4 Rb2,4.6606,7.1566,2.4960000000000004,jarvis_3d,jarvis,high,mp-28264,3D
JVASP-12891,I12 Pt4,0.0955,0.885,0.7895,jarvis_3d,jarvis,high,mp-28268,3D
JVASP-12894,Al4 Ca6 As8,1.106,1.4663,0.36029999999999984,jarvis_3d,jarvis,high,mp-28304,3D
JVASP-12896,Pt4 I8,1.1253,1.4786,0.35329999999999995,jarvis_3d,jarvis,high,mp-28319,3D
JVASP-12900,Tl4 I12,1.4169,2.086,0.6690999999999998,jarvis_3d,jarvis,high,mp-28329,3D
JVASP-12902,K6 Al4 As6,1.3705,2.218,0.8474999999999999,jarvis_3d,jarvis,high,mp-28347,3D
JVASP-12904,H6 Cl2 Ge2,4.4876,6.8874,2.399800000000001,jarvis_3d,jarvis,high,mp-28369,3D
JVASP-12907,K4 Na4 S4,2.7721,4.8894,2.1173,jarvis_3d,jarvis,high,mp-28383,3D
JVASP-12908,B12 P2,2.5526,2.7243,0.17169999999999996,jarvis_3d,jarvis,high,mp-28395,3D
JVASP-12910,Sr2 H8 O6,4.5458,6.8613,2.3155,jarvis_3d,jarvis,high,mp-28420,3D
JVASP-12913,Sb2 I4 F12,0.0165,1.3401,1.3236,jarvis_3d,jarvis,high,mp-28431,3D
JVASP-12916,Br8 O4,1.141,2.1664,1.0253999999999999,jarvis_3d,jarvis,high,mp-28460,3D
JVASP-12921,Ba2 Al4 Te8,1.6088,2.1069,0.4981,jarvis_3d,jarvis,high,mp-28505,3D
JVASP-12923,O12 Cl4 Pb2,4.5747,5.8468,1.2721,jarvis_3d,jarvis,high,mp-28513,3D
JVASP-12926,In2 Ca2 Br6,3.1518,3.6525,0.5006999999999997,jarvis_3d,jarvis,high,mp-28534,3D
JVASP-12927,Rb4 Li4 O4,2.7001,4.7789,2.0788,jarvis_3d,jarvis,high,mp-28545,3D
JVASP-12932,F8 Br2 Rb2,3.0704,4.9875,1.9171,jarvis_3d,jarvis,high,mp-28577,3D
JVASP-12933,N2 Cl6 Y4,2.1139,3.0625,0.9485999999999999,jarvis_3d,jarvis,high,mp-28580,3D
JVASP-12934,Li7 O2 Br3,4.8045,5.7648,0.9603000000000002,jarvis_3d,jarvis,high,mp-28592,3D
JVASP-12935,K4 Na4 Se4,2.2922,4.5336,2.2414,jarvis_3d,jarvis,high,mp-28595,3D
JVASP-12938,Na4 Mg2 Cl8,5.1683,7.9298,2.7615,jarvis_3d,jarvis,high,mp-28657,3D
JVASP-12939,Na4 Cd2 Cl8,3.6301,6.0096,2.3794999999999997,jarvis_3d,jarvis,high,mp-28658,3D
JVASP-12940,Ba4 Bi4 O10,1.9931,2.9749,0.9817999999999998,jarvis_3d,jarvis,high,mp-28670,3D
JVASP-12942,Sr3 Hg3 O6,2.4644,3.3823,0.9178999999999999,jarvis_3d,jarvis,high,mp-28688,3D
JVASP-12943,O7 Si2 Hg6,1.4587,1.9876,0.5288999999999999,jarvis_3d,jarvis,high,mp-28712,3D
JVASP-12944,Na4 Cr2 Cl8,0.0028,0.0031,0.0002999999999999999,jarvis_3d,jarvis,high,mp-28716,3D
JVASP-12948,K4 Rb4 S4,2.5043,4.2699,1.7655999999999996,jarvis_3d,jarvis,high,mp-28760,3D