material_id,formula,pbe_bandgap,hse_bandgap,bandgap_correction,dataset,data_source,confidence,mpid,dimensionality
JVASP-50829,Ca2 Y4 O8,4.255,5.4434,1.1883999999999997,jarvis_3d,jarvis,high,mp-753815,3D
JVASP-50835,Li4 Cu4 S4,1.2024,2.0953,0.8929,jarvis_3d,jarvis,high,mp-753826,3D
JVASP-50837,Bi4 O3 F7,3.6703,4.8807,1.2104,jarvis_3d,jarvis,high,mp-753832,3D
JVASP-50841,Mg2 Ga4 O8,2.5711,4.506,1.9349000000000003,jarvis_3d,jarvis,high,mp-753846,3D
JVASP-50851,Ni2 H1,0.008,0.0161,0.0081,jarvis_3d,jarvis,high,mp-753890,3D
JVASP-50852,Zr4 Ti4 O16,2.6593,2.9163,0.2570000000000001,jarvis_3d,jarvis,high,mp-753891,3D
JVASP-50860,Tm2 Se1 O2,2.298,3.6863,1.3883,jarvis_3d,jarvis,high,mp-753920,3D
JVASP-50867,Lu2 H2 O4,5.1041,7.1627,2.0586,jarvis_3d,jarvis,high,mp-753947,3D
JVASP-50868,Pr2 Ti2 O6,0.0026,0.0113,0.0087,jarvis_3d,jarvis,high,mp-753948,3D
JVASP-50881,Ba1 Y2 F8,6.3486,8.2832,1.9346000000000005,jarvis_3d,jarvis,high,mp-753990,3D
JVASP-50883,Tm4 H4 O8,4.916,7.1487,2.2326999999999995,jarvis_3d,jarvis,high,mp-754004,3D
JVASP-50884,Sc2 Bi2 O6,3.2638,4.3931,1.1292999999999997,jarvis_3d,jarvis,high,mp-754009,3D
JVASP-50888,Ba2 Y2 Br10,3.1249,3.8278,0.7029000000000001,jarvis_3d,jarvis,high,mp-754021,3D
JVASP-50889,Na2 Sm2 O4,3.989,5.6597,1.6707,jarvis_3d,jarvis,high,mp-754027,3D
JVASP-50893,Na2 Lu2 O4,4.6982,6.6747,1.9764999999999997,jarvis_3d,jarvis,high,mp-754043,3D
JVASP-50894,Ho4 Ti2 O10,2.9515,3.3866,0.43510000000000026,jarvis_3d,jarvis,high,mp-754044,3D
JVASP-50896,Rb6 Sb2 O6,2.41,3.8515,1.4415,jarvis_3d,jarvis,high,mp-754047,3D
JVASP-50899,Ce3 Th2 O9,0.0003,0.0019,0.0016,jarvis_3d,jarvis,high,mp-754058,3D
JVASP-50902,Mn2 P4,0.0093,0.0174,0.0081,jarvis_3d,jarvis,high,mp-754064,3D
JVASP-50903,Pb4 O6,0.1154,0.7754,0.6599999999999999,jarvis_3d,jarvis,high,mp-754071,3D
JVASP-50904,Lu4 Ti2 O10,3.0976,3.5466,0.4490000000000003,jarvis_3d,jarvis,high,mp-754073,3D
JVASP-50913,Y2 Bi6 O12,2.103,3.1932,1.0901999999999998,jarvis_3d,jarvis,high,mp-754107,3D
JVASP-50914,Pr2 As2 O8,4.0862,5.555,1.4687999999999999,jarvis_3d,jarvis,high,mp-754109,3D
JVASP-50915,Sm2 Ag2 O4,2.7559,3.3101,0.5541999999999998,jarvis_3d,jarvis,high,mp-754110,3D
JVASP-50919,Sr1 As2 O6,3.4459,4.7412,1.2953000000000001,jarvis_3d,jarvis,high,mp-754118,3D
JVASP-50923,Ba3 Hf2 O7,3.6854,4.9807,1.2952999999999997,jarvis_3d,jarvis,high,mp-754128,3D
JVASP-50924,Hf2 Zr2 O8,3.7115,4.3175,0.6059999999999999,jarvis_3d,jarvis,high,mp-754134,3D
JVASP-50930,Rb6 Y2 O6,2.2484,4.6331,2.3846999999999996,jarvis_3d,jarvis,high,mp-754146,3D
JVASP-50932,Y2 Bi2 O6,2.4337,3.9025,1.4687999999999999,jarvis_3d,jarvis,high,mp-754152,3D
JVASP-50935,Al2 In2 O6,2.4641,4.0608,1.5967000000000002,jarvis_3d,jarvis,high,mp-754157,3D
JVASP-50936,K1 Nd1 O2,3.7017,5.3013,1.5996000000000001,jarvis_3d,jarvis,high,mp-754158,3D
JVASP-50940,Sc2 Ga2 O6,2.8669,4.6552,1.7883,jarvis_3d,jarvis,high,mp-754165,3D
JVASP-50952,Tm4 Ti2 O10,3.087,3.5292,0.4421999999999997,jarvis_3d,jarvis,high,mp-754192,3D
JVASP-50953,Ba2 Sr1 I6,3.5717,4.4841,0.9123999999999999,jarvis_3d,jarvis,high,mp-754196,3D
JVASP-50956,Ba2 Sr2 I8,2.7572,3.4766,0.7193999999999998,jarvis_3d,jarvis,high,mp-754199,3D
JVASP-50964,Ba1 Sr2 I6,3.8719,4.781,0.9090999999999996,jarvis_3d,jarvis,high,mp-754212,3D
JVASP-50968,Tm2 Cu4 O8,0.0035,0.0083,0.0048000000000000004,jarvis_3d,jarvis,high,mp-754220,3D
JVASP-50971,Yb4 Ti4 O12,2.3637,2.8513,0.48760000000000003,jarvis_3d,jarvis,high,mp-754225,3D
JVASP-50972,Y2 Lu2 O6,3.575,5.6857,2.1106999999999996,jarvis_3d,jarvis,high,mp-754226,3D
JVASP-50976,Li2 Tm2 O4,4.7627,6.635,1.8723,jarvis_3d,jarvis,high,mp-754237,3D
JVASP-50978,Sc4 Ga4 O12,4.331,5.6346,1.3035999999999994,jarvis_3d,jarvis,high,mp-754239,3D
JVASP-50979,Ca2 Sm4 O8,3.8784,5.4216,1.5431999999999997,jarvis_3d,jarvis,high,mp-754240,3D
JVASP-50981,Na4 Lu4 O8,4.5728,6.7733,2.2005,jarvis_3d,jarvis,high,mp-754250,3D
JVASP-52196,Li4 Ag4 F8,1.5315,3.9436,2.4120999999999997,jarvis_3d,jarvis,high,mp-752882,3D
JVASP-52203,Na3 Bi1 O4,0.3727,1.6745,1.3018,jarvis_3d,jarvis,high,mp-752910,3D
JVASP-52205,Li8 Hf1 O6,5.5293,6.4358,0.9065000000000003,jarvis_3d,jarvis,high,mp-752922,3D
JVASP-52214,Li1 Ag2 F4,2.2699,3.8911,1.6212,jarvis_3d,jarvis,high,mp-752948,3D
JVASP-52219,U3 O5,0.0019,0.0078,0.0059,jarvis_3d,jarvis,high,mp-752998,3D
JVASP-52221,Li8 Ag4 F12,1.6142,3.3466,1.7324,jarvis_3d,jarvis,high,mp-753009,3D
JVASP-52225,Ti3 Sn3 O12,1.8436,2.3107,0.4671000000000003,jarvis_3d,jarvis,high,mp-753048,3D
JVASP-52227,Tb1 Bi5 O9,1.8485,2.7133,0.8647999999999998,jarvis_3d,jarvis,high,mp-753055,3D
JVASP-52228,Ho2 B2 O6,4.714,6.8658,2.1517999999999997,jarvis_3d,jarvis,high,mp-753056,3D
JVASP-52242,Li6 Cu1 F8,5.246,7.6404,2.394399999999999,jarvis_3d,jarvis,high,mp-753139,3D
JVASP-52247,Bi4 O4 F4,3.4149,4.7184,1.3035,jarvis_3d,jarvis,high,mp-753160,3D
JVASP-52249,Yb2 Ti2 O6,3.5575,4.0686,0.5110999999999999,jarvis_3d,jarvis,high,mp-753164,3D
JVASP-52251,Sr2 H4 Se4 O12,4.2432,5.8721,1.6288999999999998,jarvis_3d,jarvis,high,mp-753175,3D
JVASP-52252,Ag2 C2 O6,0.0112,0.0172,0.006,jarvis_3d,jarvis,high,mp-753176,3D
JVASP-52256,Yb4 Sb2 O1,0.6804,1.334,0.6536000000000001,jarvis_3d,jarvis,high,mp-753192,3D
JVASP-52257,Li2 W1 S4,1.7379,2.19,0.45209999999999995,jarvis_3d,jarvis,high,mp-753195,3D
JVASP-52258,Hf4 Ti4 O16,2.8725,3.2242,0.3517000000000001,jarvis_3d,jarvis,high,mp-753197,3D
JVASP-52263,Sm1 Ag1 O2,2.7283,3.2984,0.5701,jarvis_3d,jarvis,high,mp-753226,3D
JVASP-52268,La1 Ag1 O2,3.0655,3.5791,0.5135999999999998,jarvis_3d,jarvis,high,mp-753260,3D
JVASP-52271,Li2 Ag2 F4,1.375,3.4275,2.0525,jarvis_3d,jarvis,high,mp-753277,3D
JVASP-52273,Mg9 Cu1 O10,3.3556,4.5664,1.2107999999999999,jarvis_3d,jarvis,high,mp-753285,3D
JVASP-52274,Ca1 Cd1 O2,0.6533,2.4698,1.8165000000000002,jarvis_3d,jarvis,high,mp-753287,3D
JVASP-52279,Bi4 O2 F8,4.1845,5.5737,1.3891999999999998,jarvis_3d,jarvis,high,mp-753309,3D
JVASP-52281,Mg3 Zn1 O4,3.6363,5.1398,1.5035000000000003,jarvis_3d,jarvis,high,mp-753315,3D
JVASP-52282,Li2 Ag1 F5,1.0908,1.1529,0.062100000000000044,jarvis_3d,jarvis,high,mp-753316,3D
JVASP-52283,Dy2 B2 O6,4.7067,6.8554,2.1487000000000007,jarvis_3d,jarvis,high,mp-753318,3D
JVASP-52288,Ba2 Ca1 I6,3.4158,4.3052,0.8894000000000002,jarvis_3d,jarvis,high,mp-753345,3D
JVASP-52295,Bi4 O4 F4,3.1858,4.6393,1.4535000000000005,jarvis_3d,jarvis,high,mp-753360,3D
JVASP-52297,Li4 Cu4 S4,2.0042,2.4975,0.49330000000000007,jarvis_3d,jarvis,high,mp-753371,3D
JVASP-52299,Ta2 Ga2 O8,3.4405,4.7086,1.2680999999999996,jarvis_3d,jarvis,high,mp-753378,3D
JVASP-52302,Li2 Ag4 F8,2.2949,3.5023,1.2073999999999998,jarvis_3d,jarvis,high,mp-753385,3D
JVASP-52306,Sc4 Ti2 O10,3.1495,3.6498,0.5002999999999997,jarvis_3d,jarvis,high,mp-753401,3D
JVASP-52310,Lu4 Pt4 O14,1.7394,1.8487,0.10929999999999995,jarvis_3d,jarvis,high,mp-753414,3D
JVASP-52317,Na4 Be4 O8,3.1473,4.7811,1.6338000000000004,jarvis_3d,jarvis,high,mp-753443,3D
JVASP-52320,Ce4 Th1 O9,0.0017,0.0026,0.0009,jarvis_3d,jarvis,high,mp-753456,3D
JVASP-52321,Nb3 O7 F1,1.5874,2.1328,0.5454000000000001,jarvis_3d,jarvis,high,mp-753459,3D
JVASP-52324,Nb4 Al4 O16,2.7258,3.2712,0.5453999999999999,jarvis_3d,jarvis,high,mp-753472,3D
JVASP-52326,Bi4 O4 F4,3.2035,4.9969,1.7934,jarvis_3d,jarvis,high,mp-753478,3D
JVASP-52334,Sb6 O8 F2,2.6195,3.7226,1.1031,jarvis_3d,jarvis,high,mp-753510,3D
JVASP-52341,Sb4 O4 F4,3.6009,5.2232,1.6223,jarvis_3d,jarvis,high,mp-753539,3D
JVASP-52349,La1 U1 O4,0.0027,0.011,0.008299999999999998,jarvis_3d,jarvis,high,mp-753581,3D
JVASP-52354,Ba2 Ca2 I8,3.5953,4.2226,0.6273,jarvis_3d,jarvis,high,mp-753610,3D
JVASP-52356,Ba1 Sr1 O2,2.2685,3.7281,1.4596,jarvis_3d,jarvis,high,mp-753619,3D
JVASP-52370,Sb4 O4 F4,3.2612,5.0533,1.7921,jarvis_3d,jarvis,high,mp-753656,3D
JVASP-52372,K4 Mg4 O6,3.3106,5.5673,2.2567000000000004,jarvis_3d,jarvis,high,mp-753662,3D
JVASP-52373,Ba2 Y2 Br10,3.3838,3.9182,0.5344000000000002,jarvis_3d,jarvis,high,mp-753663,3D
JVASP-52376,Ca1 Pb1 I4,2.725,3.5313,0.8062999999999998,jarvis_3d,jarvis,high,mp-753670,3D
JVASP-52377,P2 N2 O2,5.2983,6.9864,1.6880999999999995,jarvis_3d,jarvis,high,mp-753671,3D
JVASP-52422,V2 Cu1 O6,0.0054,0.0056,0.00019999999999999966,jarvis_3d,jarvis,high,mp-741706,3D
JVASP-52432,K4 Mn2 H4 O2 F10,0.3112,0.3446,0.03340000000000004,jarvis_3d,jarvis,high,mp-743731,3D
JVASP-52458,Be4 P4 O14,6.6702,8.5267,1.8564999999999996,jarvis_3d,jarvis,high,mp-752393,3D
JVASP-52473,Ca4 Hf2 O8,3.9014,5.7291,1.8276999999999997,jarvis_3d,jarvis,high,mp-752413,3D
JVASP-52477,Na8 Ti4 O12,3.2351,3.7322,0.4971000000000001,jarvis_3d,jarvis,high,mp-752423,3D
JVASP-52489,Rb1 N1 O3,3.0183,4.2448,1.2264999999999997,jarvis_3d,jarvis,high,mp-752446,3D
JVASP-52490,Zn2 Cu4 O8,0.0271,0.6364,0.6093,jarvis_3d,jarvis,high,mp-752451,3D
JVASP-52492,Nb2 N2 O2,1.0261,1.5469,0.5207999999999999,jarvis_3d,jarvis,high,mp-752463,3D
JVASP-52493,Nb2 O4 F2,2.3598,3.02,0.6602000000000001,jarvis_3d,jarvis,high,mp-752467,3D
JVASP-52495,K3 Na1 Fe1 Cl6,0.0066,4.5835,4.5769,jarvis_3d,jarvis,high,mp-752477,3D
JVASP-52496,Li1 Bi1 F5,0.1556,0.2086,0.05300000000000002,jarvis_3d,jarvis,high,mp-752483,3D
JVASP-52497,Yb2 B8 O14,7.4968,9.5686,2.0717999999999996,jarvis_3d,jarvis,high,mp-752484,3D
JVASP-52498,Ti4 O4 F4,0.0074,1.2363,1.2288999999999999,jarvis_3d,jarvis,high,mp-752496,3D
JVASP-52510,Sr4 Hf2 O8,3.5319,5.533,2.0011000000000005,jarvis_3d,jarvis,high,mp-752537,3D
JVASP-52514,Li1 Ag1 F2,1.8616,3.1692,1.3076,jarvis_3d,jarvis,high,mp-752549,3D
JVASP-52516,Sb2 O4 F2,1.4198,2.3883,0.9685000000000001,jarvis_3d,jarvis,high,mp-752561,3D
JVASP-52521,Rb3 N3 O6,2.354,3.6175,1.2635,jarvis_3d,jarvis,high,mp-752580,3D
JVASP-52542,Ba2 Y2 F10,7.4783,8.6167,1.1383999999999999,jarvis_3d,jarvis,high,mp-752675,3D
JVASP-52543,Ti2 Bi4 O10,2.7163,3.3342,0.6179000000000001,jarvis_3d,jarvis,high,mp-752676,3D
JVASP-52544,Ba4 Y2 Br14,3.1555,3.768,0.6124999999999998,jarvis_3d,jarvis,high,mp-752677,3D
JVASP-52548,Ba2 Tm4 O8,2.9217,4.287,1.3653,jarvis_3d,jarvis,high,mp-752684,3D
JVASP-52550,Sm6 Ta2 O14,3.4924,4.5509,1.0585000000000004,jarvis_3d,jarvis,high,mp-752686,3D
JVASP-52560,Ho4 Ti2 O10,3.0786,3.5212,0.4426000000000001,jarvis_3d,jarvis,high,mp-752724,3D
JVASP-52561,Li4 Ag4 F8,1.2261,3.3152,2.0891,jarvis_3d,jarvis,high,mp-752725,3D
JVASP-52572,Li1 Ag1 F2,1.8661,3.1619,1.2958,jarvis_3d,jarvis,high,mp-752767,3D
JVASP-52585,Ag1 I1,1.2588,2.8673,1.6085000000000003,jarvis_3d,jarvis,high,mp-684580,3D
JVASP-52591,W4 C2,0.0035,0.0072,0.0036999999999999997,jarvis_3d,jarvis,high,mp-684602,3D
JVASP-52594,H1 Cl1,5.2848,7.3581,2.0733000000000006,jarvis_3d,jarvis,high,mp-684609,3D
JVASP-52600,Bi2 O3,1.1653,2.1774,1.0121,jarvis_3d,jarvis,high,mp-684654,3D
JVASP-52602,Ca2 C4,2.4516,3.0245,0.5729000000000002,jarvis_3d,jarvis,high,mp-684668,3D
JVASP-52605,H8 O4,5.5025,9.6585,4.156,jarvis_3d,jarvis,high,mp-684704,3D
JVASP-52621,K5 As4,0.0079,0.012,0.0040999999999999995,jarvis_3d,jarvis,high,mp-684799,3D
JVASP-52630,K4 O2,0.0755,3.9697,3.8942,jarvis_3d,jarvis,high,mp-684904,3D
JVASP-52645,Te4 Pb4,0.0922,0.5689,0.47669999999999996,jarvis_3d,jarvis,high,mp-685022,3D
JVASP-52653,Hf4 O8,4.4369,6.0067,1.5698000000000008,jarvis_3d,jarvis,high,mp-685097,3D
JVASP-52680,Li10 Si2 P6,1.2863,1.6853,0.399,jarvis_3d,jarvis,high,mp-685991,3D
JVASP-52734,Cr2 H1 O4,0.0063,0.0123,0.006,jarvis_3d,jarvis,high,mp-690475,3D
JVASP-52735,Ti1 V1 O4,0.0055,0.0061,0.0006000000000000007,jarvis_3d,jarvis,high,mp-690490,3D
JVASP-52768,K2 Na1 V1 O1 F5,0.3541,1.1611,0.8069999999999999,jarvis_3d,jarvis,high,mp-690635,3D
JVASP-52770,Na2 H6 C2 N8 O2,4.6823,5.1454,0.46310000000000073,jarvis_3d,jarvis,high,mp-690653,3D
JVASP-52774,Na4 B2 H8 Cl2 O8,4.9562,7.3387,2.3825000000000003,jarvis_3d,jarvis,high,mp-690684,3D
JVASP-52776,H4 S2 O8,6.5448,8.6864,2.1416000000000004,jarvis_3d,jarvis,high,mp-690733,3D
JVASP-52777,Ti4 H4,0.0047,0.0099,0.005200000000000001,jarvis_3d,jarvis,high,mp-690760,3D
JVASP-52780,K3 Re1 H6,2.7251,3.2544,0.5293000000000001,jarvis_3d,jarvis,high,mp-690789,3D
JVASP-52824,Sc1 F3,4.7052,5.9972,1.2920000000000007,jarvis_3d,jarvis,high,mp-695817,3D
JVASP-52841,Na2 H6 S2 O10,5.801,8.5932,2.7921999999999993,jarvis_3d,jarvis,high,mp-696347,3D
JVASP-52849,Al10 H2 O16,4.7567,6.0169,1.2601999999999993,jarvis_3d,jarvis,high,mp-696529,3D
JVASP-52861,H4 Pb4 Cl4 O4,3.4328,4.6123,1.1795000000000004,jarvis_3d,jarvis,high,mp-696701,3D
JVASP-52863,Rb1 Be2 F5,7.6093,11.1332,3.5239000000000003,jarvis_3d,jarvis,high,mp-696736,3D
JVASP-52866,B12 C3,1.6596,2.1598,0.5002000000000002,jarvis_3d,jarvis,high,mp-696746,3D
JVASP-52867,K2 P2 H4 O8,5.9982,8.8897,2.8914999999999997,jarvis_3d,jarvis,high,mp-696752,3D
JVASP-52872,Rb2 H2 S2,3.2427,5.2969,2.0542,jarvis_3d,jarvis,high,mp-696804,3D
JVASP-52873,H16 S8,4.518,5.5621,1.0441000000000003,jarvis_3d,jarvis,high,mp-696805,3D
JVASP-52878,Ca2 Zn2 Si2 H4 O10,3.8997,5.9206,2.0209,jarvis_3d,jarvis,high,mp-696853,3D
JVASP-52881,K3 Ca1 P2 H1 O8,5.395,8.1783,2.7833000000000006,jarvis_3d,jarvis,high,mp-696878,3D
JVASP-52889,Sr2 H8 N4,2.5102,4.802,2.2917999999999994,jarvis_3d,jarvis,high,mp-696969,3D
JVASP-52890,K4 Ga4 H16,5.0974,7.1101,2.0126999999999997,jarvis_3d,jarvis,high,mp-696983,3D
JVASP-52899,H8 O4,5.6282,7.4229,1.7947000000000006,jarvis_3d,jarvis,high,mp-697085,3D
JVASP-52903,Be4 H8 O8,5.8282,8.2648,2.4365999999999994,jarvis_3d,jarvis,high,mp-697136,3D
JVASP-52904,P4 H4 N8,4.9088,6.2148,1.306,jarvis_3d,jarvis,high,mp-697139,3D
JVASP-52905,Rb2 H4 N2,2.2081,4.3015,2.0934,jarvis_3d,jarvis,high,mp-697144,3D
JVASP-52912,Mg8 Ni4 H16,1.7254,1.9283,0.20289999999999986,jarvis_3d,jarvis,high,mp-697331,3D
JVASP-52941,Sr2 B5 H2 O11,4.9651,7.0561,2.091,jarvis_3d,jarvis,high,mp-699248,3D
JVASP-52944,Li4 Mo1 O5,2.8447,3.1113,0.26659999999999995,jarvis_3d,jarvis,high,mp-699343,3D
JVASP-52952,Pb2 W2 O8,3.3025,3.9374,0.6348999999999996,jarvis_3d,jarvis,high,mp-703260,3D
JVASP-52957,As2 H12 N2 O8,4.3013,6.2047,1.9033999999999995,jarvis_3d,jarvis,high,mp-703470,3D
JVASP-53012,V2 O4,0.0077,0.024,0.016300000000000002,jarvis_3d,jarvis,high,mp-714880,3D
JVASP-53014,Cr6 O2,0.0054,0.0057,0.0002999999999999999,jarvis_3d,jarvis,high,mp-714896,3D
JVASP-53034,Yb2 Dy4 S8,2.1833,2.8616,0.6783000000000001,jarvis_3d,jarvis,high,mp-676154,3D
JVASP-53054,Ca4 Si2 O8,4.2766,6.9159,2.6392999999999995,jarvis_3d,jarvis,high,mp-676278,3D
JVASP-53067,Dy4 Zr4 O14,2.8946,3.9961,1.1015000000000001,jarvis_3d,jarvis,high,mp-676319,3D
JVASP-53075,Na2 Nd2 S4,1.9933,2.9485,0.9552,jarvis_3d,jarvis,high,mp-676360,3D
JVASP-53082,Tl1 N1 O2,1.0791,2.1796,1.1005000000000003,jarvis_3d,jarvis,high,mp-676400,3D
JVASP-53085,Lu2 Ag2 S4,0.8482,1.9905,1.1423,jarvis_3d,jarvis,high,mp-676410,3D
JVASP-53094,Cd3 As1 I3,0.8537,1.9692,1.1155,jarvis_3d,jarvis,high,mp-676464,3D
JVASP-53100,Na3 Al1 F6,7.0559,11.3607,4.304799999999999,jarvis_3d,jarvis,high,mp-676512,3D
JVASP-53106,Tl2 Sb2 S4,1.0958,1.6143,0.5185,jarvis_3d,jarvis,high,mp-676540,3D
JVASP-53108,Rb2 Cr2 I6,0.0099,0.0106,0.0006999999999999992,jarvis_3d,jarvis,high,mp-676553,3D
JVASP-53111,Ag3 S1 I1,0.5109,1.3924,0.8815000000000001,jarvis_3d,jarvis,high,mp-676561,3D
JVASP-53119,Ba4 N2 F2,0.0263,1.2817,1.2554,jarvis_3d,jarvis,high,mp-676643,3D
JVASP-53122,Li6 Br3 N1,2.5549,3.7391,1.1842000000000001,jarvis_3d,jarvis,high,mp-676650,3D
JVASP-53125,Na2 Cl2 O4,2.4879,3.8848,1.3969,jarvis_3d,jarvis,high,mp-676673,3D
JVASP-53137,Na1 Ho2 F7,6.7141,9.6808,2.9666999999999994,jarvis_3d,jarvis,high,mp-676779,3D
JVASP-53146,K1 N1 O3,3.071,4.3311,1.2601,jarvis_3d,jarvis,high,mp-676851,3D
JVASP-53148,Al1 Sb1 O4,1.7682,2.7399,0.9717,jarvis_3d,jarvis,high,mp-676861,3D
JVASP-53161,Rb2 Bi2 F6,1.6861,2.7241,1.038,jarvis_3d,jarvis,high,mp-677028,3D
JVASP-53166,Ca1 In2 Te4,0.7735,1.2393,0.4658000000000001,jarvis_3d,jarvis,high,mp-677072,3D
JVASP-53171,Rb2 H2 F4,7.1473,10.7986,3.6513,jarvis_3d,jarvis,high,mp-677103,3D
JVASP-53177,Yb2 Bi4 Te8,0.0395,1.1322,1.0927,jarvis_3d,jarvis,high,mp-677162,3D
JVASP-53178,Cu1 As2 Pb6 Cl7 O6,2.5133,2.8558,0.3424999999999998,jarvis_3d,jarvis,high,mp-677164,3D
JVASP-53181,Mg6 B2 H4 O10 F2,4.1336,6.8169,2.6833,jarvis_3d,jarvis,high,mp-677193,3D
JVASP-53186,Lu1 Cu1 Se2,1.3221,1.6813,0.35919999999999996,jarvis_3d,jarvis,high,mp-677241,3D
JVASP-53187,K4 S2 O8,5.4614,8.5835,3.1221000000000005,jarvis_3d,jarvis,high,mp-677242,3D
JVASP-53194,Ga1 P1 O4,4.8137,7.3192,2.5055000000000005,jarvis_3d,jarvis,high,mp-677335,3D
JVASP-53265,Al1 Fe2 Mo1,0.0034,0.0061,0.0027000000000000006,jarvis_3d,jarvis,high,mp-672259,3D
JVASP-53301,U1 Ni1 Sn1,0.0052,0.0142,0.009000000000000001,jarvis_3d,jarvis,high,mp-672385,3D
JVASP-53326,Yb2 S4,1.3205,2.0852,0.7646999999999999,jarvis_3d,jarvis,high,mp-672705,3D
JVASP-53341,Bi2 O3,1.019,1.9845,0.9655,jarvis_3d,jarvis,high,mp-673244,3D
JVASP-53347,In4 S6,1.0006,2.4688,1.4682,jarvis_3d,jarvis,high,mp-673633,3D
JVASP-53358,Tb4 Yb2 S8,2.1619,2.8348,0.6728999999999998,jarvis_3d,jarvis,high,mp-673682,3D
JVASP-53363,K6 Cl2 O2,1.2885,3.6055,2.317,jarvis_3d,jarvis,high,mp-673798,3D
JVASP-53365,Mg4 Si2 O8,4.3211,6.0937,1.7725999999999997,jarvis_3d,jarvis,high,mp-673808,3D
JVASP-53395,Na2 Er2 F8,7.1392,10.0379,2.8987000000000007,jarvis_3d,jarvis,high,mp-674459,3D
JVASP-53396,Al2 H2 O4,5.3406,6.5194,1.1787999999999998,jarvis_3d,jarvis,high,mp-674463,3D
JVASP-53399,Ba2 C2 O6,4.4441,6.5528,2.1087000000000007,jarvis_3d,jarvis,high,mp-674478,3D
JVASP-53402,Rb2 Pb2 F6,4.0009,5.5201,1.5192000000000005,jarvis_3d,jarvis,high,mp-674508,3D
JVASP-53404,In5 Cu1 S8,0.2056,0.5861,0.38049999999999995,jarvis_3d,jarvis,high,mp-674514,3D
JVASP-53411,Sm4 Pb2 Se8,1.7613,2.1467,0.38539999999999996,jarvis_3d,jarvis,high,mp-674804,3D
JVASP-53414,Tl2 Bi2 F8,3.8946,4.4168,0.5222000000000002,jarvis_3d,jarvis,high,mp-674849,3D
JVASP-53421,Ag3 S1 I1,0.6837,1.1796,0.4959,jarvis_3d,jarvis,high,mp-674981,3D
JVASP-53435,Sm4 Zn2 S8,1.3997,2.4954,1.0957000000000001,jarvis_3d,jarvis,high,mp-675067,3D
JVASP-53442,Nd4 Pb2 Se8,1.7585,2.1281,0.36959999999999993,jarvis_3d,jarvis,high,mp-675100,3D
JVASP-53444,Na3 Y1 Cl6,5.3001,6.127,0.8269000000000002,jarvis_3d,jarvis,high,mp-675104,3D
JVASP-53450,In4 Sn1 S8,0.4575,1.3874,0.9299,jarvis_3d,jarvis,high,mp-675124,3D
JVASP-53457,Pr4 Pb2 Se8,1.747,2.122,0.3749999999999998,jarvis_3d,jarvis,high,mp-675146,3D
JVASP-53460,Ta1 Al1 O4,1.8791,3.162,1.2829,jarvis_3d,jarvis,high,mp-675172,3D
JVASP-53461,Ba3 Bi2 F12,5.1902,6.8969,1.7066999999999997,jarvis_3d,jarvis,high,mp-675179,3D
JVASP-53462,Er1 Cu1 Se2,1.2514,1.5678,0.3164,jarvis_3d,jarvis,high,mp-675180,3D
JVASP-53466,Na2 Pr2 S4,1.9997,2.9514,0.9517,jarvis_3d,jarvis,high,mp-675199,3D
JVASP-53468,Dy4 Pb2 S8,2.2396,2.7899,0.5503,jarvis_3d,jarvis,high,mp-675209,3D
JVASP-53478,Yb2 Nd4 S8,2.0631,2.8344,0.7713000000000001,jarvis_3d,jarvis,high,mp-675244,3D
JVASP-53482,Na2 C1 O5,3.8267,7.4086,3.5818999999999996,jarvis_3d,jarvis,high,mp-675271,3D
JVASP-53484,Tl1 P1 F6,6.0503,6.9874,0.9371,jarvis_3d,jarvis,high,mp-675283,3D
JVASP-53485,Ca3 U1 N4,1.4806,1.6115,0.13090000000000002,jarvis_3d,jarvis,high,mp-675286,3D
JVASP-53498,Dy1 Cu1 Se2,1.1992,1.5129,0.31369999999999987,jarvis_3d,jarvis,high,mp-675349,3D
JVASP-53530,Li6 I3 N1,2.8077,3.6906,0.8828999999999998,jarvis_3d,jarvis,high,mp-675488,3D
JVASP-53535,Sm4 Pb2 S8,2.2203,2.6618,0.4415,jarvis_3d,jarvis,high,mp-675511,3D
JVASP-53551,Co2 Sb1 Te1,0.0014,0.0057,0.0043,jarvis_3d,jarvis,high,mp-675568,3D
JVASP-53552,K1 P1 F6,7.5391,9.9645,2.425399999999999,jarvis_3d,jarvis,high,mp-675569,3D
JVASP-53562,Al12 N4 O12,4.4821,5.6027,1.1205999999999996,jarvis_3d,jarvis,high,mp-675601,3D
JVASP-53563,Li5 Au1 O4,2.2045,2.5729,0.3684000000000003,jarvis_3d,jarvis,high,mp-675606,3D
JVASP-53573,K1 Bi2 F7,4.4768,6.3735,1.8967,jarvis_3d,jarvis,high,mp-675634,3D
JVASP-53575,Pr4 Pb2 S8,2.2492,2.6575,0.4083000000000001,jarvis_3d,jarvis,high,mp-675638,3D
JVASP-53581,Mg2 P2 S6,3.1228,3.9421,0.8193000000000001,jarvis_3d,jarvis,high,mp-675651,3D
JVASP-53602,Zn2 Ge1 S4,2.2546,3.3549,1.1003000000000003,jarvis_3d,jarvis,high,mp-675748,3D
JVASP-53618,Na2 Ho2 F8,7.1421,9.9132,2.7710999999999997,jarvis_3d,jarvis,high,mp-675798,3D
JVASP-53640,Y1 Cu1 Se2,1.2074,1.3276,0.12019999999999986,jarvis_3d,jarvis,high,mp-675902,3D