material_id,formula,pbe_bandgap,hse_bandgap,bandgap_correction,dataset,data_source,confidence,mpid,dimensionality
JVASP-54708,H4 S2 O8,6.4818,8.7827,2.3009000000000004,jarvis_3d,jarvis,high,mp-625475,3D
JVASP-54710,H3 Br1 O1,4.4678,6.4755,2.0077,jarvis_3d,jarvis,high,mp-625509,3D
JVASP-54711,H3 Br1 O1,4.4682,6.4767,2.0084999999999997,jarvis_3d,jarvis,high,mp-625521,3D
JVASP-54714,H14 Br2 O6,4.0763,6.2358,2.1595000000000004,jarvis_3d,jarvis,high,mp-625555,3D
JVASP-54715,H14 Br2 O6,4.3915,6.5863,2.1948,jarvis_3d,jarvis,high,mp-625560,3D
JVASP-54717,H14 Br2 O6,4.2704,6.4291,2.1586999999999996,jarvis_3d,jarvis,high,mp-625583,3D
JVASP-54718,Mo2 H4 O8,3.0433,3.6092,0.5659000000000001,jarvis_3d,jarvis,high,mp-625600,3D
JVASP-54719,H4 N2 O3,0.0016,1.2418,1.2402,jarvis_3d,jarvis,high,mp-625619,3D
JVASP-54720,Ga4 H4 O8,2.1062,4.1194,2.0132,jarvis_3d,jarvis,high,mp-625621,3D
JVASP-54721,Ga4 H4 O8,3.306,4.9902,1.6841999999999997,jarvis_3d,jarvis,high,mp-625628,3D
JVASP-54722,Sc4 H4 O8,4.5839,5.5442,0.9603000000000002,jarvis_3d,jarvis,high,mp-625663,3D
JVASP-54723,Y2 H6 O6,3.8969,6.3366,2.4396999999999998,jarvis_3d,jarvis,high,mp-625677,3D
JVASP-54724,Sc4 H4 O8,4.5826,5.5436,0.9609999999999994,jarvis_3d,jarvis,high,mp-625678,3D
JVASP-54726,Y2 H6 O6,3.8966,6.3372,2.4406000000000003,jarvis_3d,jarvis,high,mp-625718,3D
JVASP-54730,Mo2 H8 O10,2.2629,2.8203,0.5573999999999999,jarvis_3d,jarvis,high,mp-625751,3D
JVASP-54732,H4 W4 O14,1.6046,2.5041,0.8995000000000002,jarvis_3d,jarvis,high,mp-625784,3D
JVASP-54734,Ba2 H8 O12,2.5046,4.0279,1.5232999999999999,jarvis_3d,jarvis,high,mp-625809,3D
JVASP-54735,Sr2 H8 O12,2.7562,4.0554,1.2991999999999995,jarvis_3d,jarvis,high,mp-625812,3D
JVASP-54736,Sr2 H8 O12,2.8298,4.1272,1.2974,jarvis_3d,jarvis,high,mp-625821,3D
JVASP-54737,Be4 H8 O8,5.7455,7.591,1.8455000000000004,jarvis_3d,jarvis,high,mp-625823,3D
JVASP-54738,Zn4 H8 O8,2.8912,4.7202,1.8290000000000002,jarvis_3d,jarvis,high,mp-625826,3D
JVASP-54739,Zn4 H8 O8,3.0681,5.3419,2.2738,jarvis_3d,jarvis,high,mp-625830,3D
JVASP-54740,Ba2 H8 O12,2.5137,3.7356,1.2218999999999998,jarvis_3d,jarvis,high,mp-625832,3D
JVASP-54741,Sr2 H8 O12,3.1298,4.5662,1.4364000000000003,jarvis_3d,jarvis,high,mp-625836,3D
JVASP-54742,Be4 H8 O8,5.7466,7.592,1.8453999999999997,jarvis_3d,jarvis,high,mp-625837,3D
JVASP-54743,Zn4 H8 O8,3.0679,5.3548,2.2869,jarvis_3d,jarvis,high,mp-625857,3D
JVASP-54744,Sr2 H8 O12,0.0038,1.0415,1.0377,jarvis_3d,jarvis,high,mp-625871,3D
JVASP-54745,Ba4 H8 O16,3.0834,4.3992,1.3158000000000003,jarvis_3d,jarvis,high,mp-625873,3D
JVASP-54746,Ta4 H8 O14,2.9337,4.0701,1.1364,jarvis_3d,jarvis,high,mp-625886,3D
JVASP-54749,Ba2 H8 O12,2.9514,4.3997,1.4483000000000001,jarvis_3d,jarvis,high,mp-625909,3D
JVASP-54751,H4 I4 O12,3.0854,4.2076,1.1222000000000003,jarvis_3d,jarvis,high,mp-625917,3D
JVASP-54752,Ta4 H8 O14,0.3515,2.0049,1.6534000000000002,jarvis_3d,jarvis,high,mp-625920,3D
JVASP-54753,H20 N4 O4,4.8189,8.5224,3.703499999999999,jarvis_3d,jarvis,high,mp-625924,3D
JVASP-54754,Te1 H6 O6,2.1247,3.1673,1.0426000000000002,jarvis_3d,jarvis,high,mp-625941,3D
JVASP-54758,Te1 H6 O6,2.656,3.7015,1.0454999999999997,jarvis_3d,jarvis,high,mp-625993,3D
JVASP-54759,Na2 H2 O2,3.6517,6.6427,2.9909999999999997,jarvis_3d,jarvis,high,mp-625996,3D
JVASP-54761,Na2 H2 O2,3.8102,6.8534,3.0431999999999997,jarvis_3d,jarvis,high,mp-626000,3D
JVASP-54762,Te1 H6 O6,3.1032,4.2889,1.1856999999999998,jarvis_3d,jarvis,high,mp-626012,3D
JVASP-54767,H8 N4 O6,2.6053,3.5382,0.9328999999999996,jarvis_3d,jarvis,high,mp-626113,3D
JVASP-54769,Mg1 H2 O2,4.4109,6.7187,2.3078000000000003,jarvis_3d,jarvis,high,mp-626149,3D
JVASP-54770,Y2 H2 O4,4.3676,5.9908,1.6231999999999998,jarvis_3d,jarvis,high,mp-626151,3D
JVASP-54772,Al10 H2 O16,5.2662,6.5164,1.2501999999999995,jarvis_3d,jarvis,high,mp-626161,3D
JVASP-54773,Ho2 H2 O4,4.1825,6.2669,2.0843999999999996,jarvis_3d,jarvis,high,mp-626173,3D
JVASP-54774,Sb4 H4 O12,1.169,2.1526,0.9836,jarvis_3d,jarvis,high,mp-626182,3D
JVASP-54780,Sb4 H4 O12,1.263,2.2555,0.9925000000000002,jarvis_3d,jarvis,high,mp-626218,3D
JVASP-13762,S2 Pb2,0.3479,1.285,0.9370999999999999,jarvis_3d,jarvis,high,mp-20526,3D
JVASP-13785,Ga4 Te4 Cl4,2.0052,2.9901,0.9849000000000001,jarvis_3d,jarvis,high,mp-27449,3D
JVASP-13787,Al2 Cl2 O2,5.9417,7.6826,1.7409,jarvis_3d,jarvis,high,mp-27863,3D
JVASP-13789,Al2 I2 Cl12,2.1337,3.6957,1.5619999999999998,jarvis_3d,jarvis,high,mp-27935,3D
JVASP-13792,S8 Cl8,2.5297,3.6109,1.0812,jarvis_3d,jarvis,high,mp-28096,3D
JVASP-13795,Ca4 I2 N2,2.4055,3.072,0.6665000000000001,jarvis_3d,jarvis,high,mp-28553,3D
JVASP-13799,Ca2 Th2 Br12,2.2982,2.628,0.3298000000000001,jarvis_3d,jarvis,high,mp-29015,3D
JVASP-13803,Tl4 Ag4 Se4,0.6704,1.2335,0.5631,jarvis_3d,jarvis,high,mp-29238,3D
JVASP-13808,As4 Cl12 O4,2.3256,3.4904,1.1648,jarvis_3d,jarvis,high,mp-29863,3D
JVASP-13815,O6 Mg2 Ge2,2.7341,4.41,1.6759,jarvis_3d,jarvis,high,mp-3047,3D
JVASP-13818,Ag4 S2,0.1267,1.3548,1.2281,jarvis_3d,jarvis,high,mp-31053,3D
JVASP-13822,O1 Cl4 W1,1.4062,2.555,1.1488000000000003,jarvis_3d,jarvis,high,mp-32541,3D
JVASP-13827,O6 Mg2 Si2,5.2622,6.4719,1.2096999999999998,jarvis_3d,jarvis,high,mp-4391,3D
JVASP-13835,Y2 N2,0.7815,1.6683,0.8867999999999999,jarvis_3d,jarvis,high,mp-6913,3D
JVASP-13846,Yb1 Co3 B2,0.0031,0.0041,0.0010000000000000005,jarvis_3d,jarvis,high,mp-10058,3D
JVASP-13856,Ga2 Se2,0.8347,2.1064,1.2716999999999998,jarvis_3d,jarvis,high,mp-11342,3D
JVASP-13867,Na6 Ge3 F18,5.6875,8.8562,3.1686999999999994,jarvis_3d,jarvis,high,mp-17438,3D
JVASP-13868,Na6 Si3 F18,7.266,11.009,3.7430000000000003,jarvis_3d,jarvis,high,mp-17939,3D
JVASP-13893,Zr2 Ni2 P2,0.0018,0.0123,0.0105,jarvis_3d,jarvis,high,mp-21204,3D
JVASP-13894,Fe1 Pb2 C6 N6,3.3468,3.8291,0.48229999999999995,jarvis_3d,jarvis,high,mp-21239,3D
JVASP-13904,Ag4 Cl4 O8,0.8367,2.2987,1.4620000000000002,jarvis_3d,jarvis,high,mp-22959,3D
JVASP-13916,Al2 Cl6,5.2539,6.4625,1.2086000000000006,jarvis_3d,jarvis,high,mp-25469,3D
JVASP-13950,Be2 Br4,5.4295,6.9897,1.5602,jarvis_3d,jarvis,high,mp-30139,3D
JVASP-13963,Sc4 O4 F4,4.586,5.446,0.8599999999999994,jarvis_3d,jarvis,high,mp-4662,3D
JVASP-13971,Nd2 O3,1.5767,3.1381,1.5614000000000001,jarvis_3d,jarvis,high,mp-7954,3D
JVASP-13974,Li1 Ti3 Se6,0.0082,0.0154,0.0072,jarvis_3d,jarvis,high,mp-8132,3D
JVASP-14003,Li1 Sc1 Mo3 O8,1.2363,1.6183,0.3820000000000001,jarvis_3d,jarvis,high,mp-19433,3D
JVASP-14011,C1 N1 K1,4.967,6.8617,1.8947000000000003,jarvis_3d,jarvis,high,mp-20134,3D
JVASP-14034,Na2 S4 Fe2,0.013,0.013,0.0,jarvis_3d,jarvis,high,mp-28100,3D
JVASP-14038,Hg8 I4 O4,0.8828,1.7197,0.8369,jarvis_3d,jarvis,high,mp-28136,3D
JVASP-14049,K4 Au4 Br16,0.177,1.327,1.15,jarvis_3d,jarvis,high,mp-29694,3D
JVASP-14072,Er4 F12,8.103,10.0063,1.9032999999999998,jarvis_3d,jarvis,high,mp-9371,3D
JVASP-14104,K4 In4 Br16,2.7166,4.3359,1.6192999999999995,jarvis_3d,jarvis,high,mp-22932,3D
JVASP-14116,Y4 F12,7.9013,8.494,0.5926999999999998,jarvis_3d,jarvis,high,mp-2416,3D
JVASP-14117,Na4 B4 H16,6.4291,8.9188,2.489699999999999,jarvis_3d,jarvis,high,mp-24810,3D
JVASP-14147,B6 O9,6.5413,9.1887,2.647400000000001,jarvis_3d,jarvis,high,mp-306,3D
JVASP-14160,Sn4 Ge4 S12,1.2938,2.0728,0.7789999999999999,jarvis_3d,jarvis,high,mp-5045,3D
JVASP-14163,As8 S12,2.0484,3.0579,1.0095,jarvis_3d,jarvis,high,mp-641,3D
JVASP-14166,S6 Pd1 Ta2,0.0062,0.0418,0.0356,jarvis_3d,jarvis,high,mp-8435,3D
JVASP-14187,Na2 Cu3 Ge4 O12,0.0019,0.2412,0.23929999999999998,jarvis_3d,jarvis,high,mp-18637,3D
JVASP-14204,F4 Cl16 Sb4,1.2155,2.3975,1.182,jarvis_3d,jarvis,high,mp-23412,3D
JVASP-14248,Ca4 Mg2 Si4 O14,4.7869,6.8998,2.1129,jarvis_3d,jarvis,high,mp-6094,3D
JVASP-14253,K1 Al1 S2 O8,6.056,8.3857,2.3297,jarvis_3d,jarvis,high,mp-7645,3D
JVASP-14258,Ba4 F8,5.8651,6.8765,1.0114,jarvis_3d,jarvis,high,mp-8644,3D
JVASP-27814,P4 H4 F16,7.5475,10.5463,2.9988,jarvis_3d,jarvis,high,mp-29514,3D
JVASP-27815,H4 F6 P2,6.6515,9.5788,2.927299999999999,jarvis_3d,jarvis,high,mp-29515,3D
JVASP-31661,Cu2 Au2 Se8,0.0151,0.0631,0.048,jarvis_3d,jarvis,high,mp-30151,3D
JVASP-34165,Na6 Y2 Cl12,5.1734,6.0576,0.8841999999999999,jarvis_3d,jarvis,high,mp-31362,3D
JVASP-34189,Ti9 O10,0.0019,0.002,0.00010000000000000005,jarvis_3d,jarvis,high,mp-32813,3D
JVASP-42172,Ba2 Lu4 O8,3.0693,4.3976,1.3282999999999996,jarvis_3d,jarvis,high,mp-780535,3D
JVASP-42216,Li4 Co4 O2 F12,0.0031,0.007,0.0039000000000000003,jarvis_3d,jarvis,high,mp-780642,3D
JVASP-42218,Fe6 O10 F2,0.0013,0.0026,0.0013,jarvis_3d,jarvis,high,mp-780645,3D
JVASP-42222,Na8 Bi4 O12,1.1011,1.6122,0.5111000000000001,jarvis_3d,jarvis,high,mp-780656,3D
JVASP-42237,Mn6 O7 F5,0.0028,0.0036,0.0007999999999999999,jarvis_3d,jarvis,high,mp-780746,3D
JVASP-42251,Fe6 O6 F6,0.0021,0.0032,0.0011000000000000003,jarvis_3d,jarvis,high,mp-780806,3D
JVASP-42255,Li4 Ti3 V3 Te2 O16,0.0063,0.0077,0.0014000000000000002,jarvis_3d,jarvis,high,mp-780810,3D
JVASP-42261,Ti1 V1 O4,0.0004,0.0106,0.0102,jarvis_3d,jarvis,high,mp-780818,3D
JVASP-42336,Fe8 O10 F6,0.0011,0.0013,0.00019999999999999987,jarvis_3d,jarvis,high,mp-781080,3D
JVASP-42337,V2 O2 F6,2.8604,3.2791,0.4187000000000003,jarvis_3d,jarvis,high,mp-781081,3D
JVASP-42341,Ca6 W2 O12,3.3283,4.2706,0.9422999999999999,jarvis_3d,jarvis,high,mp-781505,3D
JVASP-42464,Ni2 Mo1,0.0002,0.0003,9.999999999999996e-05,jarvis_3d,jarvis,high,mp-784630,3D
JVASP-42549,Ti8 O16,2.6652,3.1458,0.4805999999999999,jarvis_3d,jarvis,high,mp-849533,3D
JVASP-42551,Ni6 O8,0.0003,0.0004,0.00010000000000000005,jarvis_3d,jarvis,high,mp-849536,3D
JVASP-42552,Mn6 O7 F5,0.0052,0.0057,0.0005000000000000004,jarvis_3d,jarvis,high,mp-849538,3D
JVASP-42554,V4 O7 F5,0.0029,0.0047,0.0018000000000000004,jarvis_3d,jarvis,high,mp-849586,3D
JVASP-42636,Li2 Sc2 V2 O8,0.0051,0.0056,0.0004999999999999996,jarvis_3d,jarvis,high,mp-850117,3D
JVASP-42657,Fe2 O4,0.0091,0.0482,0.039099999999999996,jarvis_3d,jarvis,high,mp-850222,3D
JVASP-42662,Mn8 O13 F3,0.0019,0.0039,0.002,jarvis_3d,jarvis,high,mp-850235,3D
JVASP-42667,Sr2 Ca2 I8,3.5128,4.3419,0.8291,jarvis_3d,jarvis,high,mp-850277,3D
JVASP-42668,Sr4 Ca4 I16,3.1132,3.8804,0.7671999999999999,jarvis_3d,jarvis,high,mp-850279,3D
JVASP-42669,Na8 Sn1 O6,2.0197,4.4797,2.4600000000000004,jarvis_3d,jarvis,high,mp-850280,3D
JVASP-42671,Sr2 Ca2 I8,3.7859,4.6482,0.8623000000000003,jarvis_3d,jarvis,high,mp-850305,3D
JVASP-42684,Li2 V2 P2 H2 O10,0.0005,0.0063,0.0058,jarvis_3d,jarvis,high,mp-850399,3D
JVASP-42701,Mn4 O7 F1,0.0016,0.0036,0.002,jarvis_3d,jarvis,high,mp-850518,3D
JVASP-42709,V4 O4 F12,2.6585,3.0826,0.4240999999999997,jarvis_3d,jarvis,high,mp-850876,3D
JVASP-42719,Fe6 O8 F4,0.0038,0.0067,0.0029000000000000002,jarvis_3d,jarvis,high,mp-850901,3D
JVASP-42764,Mn6 O2 F10,0.012,0.02,0.008,jarvis_3d,jarvis,high,mp-851028,3D
JVASP-42808,Mn6 O4 F8,0.0123,0.0147,0.0023999999999999994,jarvis_3d,jarvis,high,mp-853160,3D
JVASP-42809,Co8 O8 F8,0.0022,0.0024,0.00019999999999999966,jarvis_3d,jarvis,high,mp-853161,3D
JVASP-42815,Na4 V2 O6,0.0106,0.026,0.015399999999999999,jarvis_3d,jarvis,high,mp-853167,3D
JVASP-42859,Sc1 Al1 Ir2,0.0087,0.1738,0.16510000000000002,jarvis_3d,jarvis,high,mp-861507,3D
JVASP-42860,Pr2 Zn1 Ir1,0.0081,0.0214,0.0133,jarvis_3d,jarvis,high,mp-861508,3D
JVASP-42890,Er2 Tl1 Cd1,0.0189,0.0189,0.0,jarvis_3d,jarvis,high,mp-861628,3D
JVASP-42894,Ti2 Al1 Tc1,0.0142,0.0206,0.0063999999999999994,jarvis_3d,jarvis,high,mp-861637,3D
JVASP-42941,Ti1 Sn1 O4,2.269,2.6654,0.39639999999999986,jarvis_3d,jarvis,high,mp-773864,3D
JVASP-43032,Na2 Mn4 O8,0.0019,0.0038,0.0019,jarvis_3d,jarvis,high,mp-774174,3D
JVASP-43034,Li4 V2 O6,0.0046,0.006,0.0014000000000000002,jarvis_3d,jarvis,high,mp-774192,3D
JVASP-43056,V5 O12,0.0059,0.0159,0.010000000000000002,jarvis_3d,jarvis,high,mp-774289,3D
JVASP-43064,Li4 Mn3 F10,0.0041,0.006,0.0018999999999999998,jarvis_3d,jarvis,high,mp-774371,3D
JVASP-43070,Li4 Mn2 F8,0.0017,0.0103,0.0086,jarvis_3d,jarvis,high,mp-774430,3D
JVASP-43072,Pr4 S4 O4,1.5728,2.7537,1.1808999999999998,jarvis_3d,jarvis,high,mp-774472,3D
JVASP-43078,Li6 Bi2 O8,1.4123,2.2943,0.8819999999999997,jarvis_3d,jarvis,high,mp-774702,3D
JVASP-43079,Li2 Cu2 S2,0.9671,1.5781,0.6110000000000001,jarvis_3d,jarvis,high,mp-774712,3D
JVASP-43081,Li4 Cu4 S4,1.6591,1.8889,0.2298,jarvis_3d,jarvis,high,mp-774736,3D
JVASP-43091,K1 Li1 Zn1 S2,2.5922,3.9358,1.3436,jarvis_3d,jarvis,high,mp-774907,3D
JVASP-43093,Li1 Sb1 Te3 O12,1.3313,1.8743,0.5430000000000001,jarvis_3d,jarvis,high,mp-774910,3D
JVASP-43114,Li2 Fe1 O2,0.0025,0.0085,0.006,jarvis_3d,jarvis,high,mp-775036,3D
JVASP-43213,Li2 Mn1 Cu1 O4,0.0022,0.0024,0.00019999999999999966,jarvis_3d,jarvis,high,mp-775241,3D
JVASP-43367,Hf8 O16,4.0334,5.6011,1.5676999999999994,jarvis_3d,jarvis,high,mp-775757,3D
JVASP-43368,Ag4 Cl4 O12,2.8896,4.3548,1.4651999999999998,jarvis_3d,jarvis,high,mp-775761,3D
JVASP-43371,Ag4 As4 O12,0.5635,1.2399,0.6764,jarvis_3d,jarvis,high,mp-775767,3D
JVASP-43372,Ag2 Bi2 O6,0.0094,0.0682,0.0588,jarvis_3d,jarvis,high,mp-775774,3D
JVASP-43383,Zr8 N8 O4,2.1018,2.571,0.4692000000000003,jarvis_3d,jarvis,high,mp-775805,3D
JVASP-43384,Mg6 O6,3.8352,5.7351,1.8999000000000001,jarvis_3d,jarvis,high,mp-775808,3D
JVASP-43392,Zr2 O4,3.598,4.1063,0.5083000000000002,jarvis_3d,jarvis,high,mp-775909,3D
JVASP-43398,Zr3 O6,4.0052,4.6095,0.6042999999999994,jarvis_3d,jarvis,high,mp-775935,3D
JVASP-43407,Li6 W1 O6,3.288,4.209,0.9209999999999998,jarvis_3d,jarvis,high,mp-775983,3D
JVASP-43427,K4 O2,2.1061,4.9394,2.8333,jarvis_3d,jarvis,high,mp-776081,3D
JVASP-43430,Li3 V2 F9,0.0067,0.0114,0.0047,jarvis_3d,jarvis,high,mp-776092,3D
JVASP-43450,Li2 Fe2 F6,0.0029,0.0106,0.0077,jarvis_3d,jarvis,high,mp-776185,3D
JVASP-43469,Zr4 N4 O2,1.1242,1.6933,0.5690999999999999,jarvis_3d,jarvis,high,mp-776250,3D
JVASP-43505,Li2 Fe2 F8,0.0134,0.0385,0.025099999999999997,jarvis_3d,jarvis,high,mp-776495,3D
JVASP-43512,Li2 V2 F8,0.0009,0.0017,0.0007999999999999999,jarvis_3d,jarvis,high,mp-776513,3D
JVASP-43519,Hf2 O4,3.9504,5.5829,1.6325000000000003,jarvis_3d,jarvis,high,mp-776532,3D
JVASP-43520,Cr1 O3,1.5891,2.1252,0.5361,jarvis_3d,jarvis,high,mp-776563,3D
JVASP-43542,Li3 Y1 Ni2 O6,0.0016,0.0046,0.003,jarvis_3d,jarvis,high,mp-776649,3D
JVASP-43570,Li2 Fe3 F8,0.0045,0.0055,0.001,jarvis_3d,jarvis,high,mp-776732,3D
JVASP-43605,Be4 Cr4 O16,1.9725,2.3244,0.3518999999999999,jarvis_3d,jarvis,high,mp-776836,3D
JVASP-43629,Mg4 O4,3.8568,5.755,1.8982,jarvis_3d,jarvis,high,mp-776911,3D
JVASP-43637,Na6 O3,2.0282,4.7055,2.6773,jarvis_3d,jarvis,high,mp-776952,3D
JVASP-43684,Li2 Fe2 F8,0.0009,0.0051,0.004200000000000001,jarvis_3d,jarvis,high,mp-777096,3D
JVASP-43697,V4 O4 F12,2.79,3.1469,0.3569,jarvis_3d,jarvis,high,mp-777150,3D
JVASP-43719,Mn6 O8 F4,0.0056,0.0066,0.001,jarvis_3d,jarvis,high,mp-777239,3D
JVASP-43747,Dy2 H2 O4,4.9159,6.8761,1.9602000000000004,jarvis_3d,jarvis,high,mp-777422,3D
JVASP-43751,Mn8 O13 F3,0.0012,0.0017,0.0005,jarvis_3d,jarvis,high,mp-777432,3D
JVASP-43806,V5 O12,0.0108,0.0405,0.0297,jarvis_3d,jarvis,high,mp-777580,3D
JVASP-43807,Na7 Nb1 O6,3.0174,4.2556,1.2382000000000004,jarvis_3d,jarvis,high,mp-777584,3D
JVASP-43819,Mn8 O4 F12,0.0087,0.0107,0.002,jarvis_3d,jarvis,high,mp-777629,3D
JVASP-43907,Li1 Mn1 Co3 O8,0.0012,0.0115,0.0103,jarvis_3d,jarvis,high,mp-778023,3D
JVASP-43920,Ba1 Y1 F5,6.6958,7.678,0.9821999999999997,jarvis_3d,jarvis,high,mp-778079,3D
JVASP-43925,Ge4 N4 O2,2.5329,4.1112,1.5783,jarvis_3d,jarvis,high,mp-778194,3D
JVASP-44017,Fe6 O7 F5,0.0012,0.003,0.0018000000000000002,jarvis_3d,jarvis,high,mp-778644,3D
JVASP-44054,V4 O4 F4,0.0011,0.0104,0.0093,jarvis_3d,jarvis,high,mp-778746,3D
JVASP-44085,In6 N2 O6,0.6936,1.4795,0.7859,jarvis_3d,jarvis,high,mp-778848,3D
JVASP-44097,Zn4 Se4 O16,2.3179,3.526,1.2081,jarvis_3d,jarvis,high,mp-778924,3D
JVASP-44101,Fe6 O7 F5,0.001,0.0022,0.0012000000000000001,jarvis_3d,jarvis,high,mp-778928,3D
JVASP-44105,Tm6 Ta2 O14,3.4315,4.4875,1.0559999999999996,jarvis_3d,jarvis,high,mp-779012,3D
JVASP-44142,Li4 Mn2 Si2 O10,0.1607,0.3556,0.19490000000000002,jarvis_3d,jarvis,high,mp-779235,3D
JVASP-44144,Mn6 O10 F2,0.0026,0.0027,0.00010000000000000026,jarvis_3d,jarvis,high,mp-779237,3D
JVASP-44224,Cr4 O12,1.1666,1.7429,0.5762999999999998,jarvis_3d,jarvis,high,mp-779941,3D
JVASP-44226,V2 O2 F6,2.8759,3.2889,0.4129999999999998,jarvis_3d,jarvis,high,mp-779943,3D
JVASP-44230,Mn6 O8 F4,0.0019,0.0038,0.0019,jarvis_3d,jarvis,high,mp-779950,3D
JVASP-44231,Na4 Ni4 O6,0.0106,0.0186,0.007999999999999998,jarvis_3d,jarvis,high,mp-779951,3D
JVASP-44247,Li2 Fe4 F10,0.0011,0.0037,0.0026,jarvis_3d,jarvis,high,mp-779970,3D
JVASP-44268,Li4 V1 Te3 O12,0.0013,0.0618,0.0605,jarvis_3d,jarvis,high,mp-779999,3D
JVASP-44293,Tb2 Nb2 O8,3.2787,3.968,0.6892999999999998,jarvis_3d,jarvis,high,mp-780033,3D
JVASP-44349,Tm6 Te3 O18,3.1892,4.5258,1.3366000000000002,jarvis_3d,jarvis,high,mp-772191,3D
JVASP-44353,Tm2 Cl2 O2,5.218,6.6182,1.4002,jarvis_3d,jarvis,high,mp-772222,3D
JVASP-44389,Mn2 Fe3 Co3 O16,0.0017,0.0108,0.0091,jarvis_3d,jarvis,high,mp-772328,3D
JVASP-44414,Li4 Mn6 W2 O16,0.0014,0.0015,0.00010000000000000005,jarvis_3d,jarvis,high,mp-772369,3D
JVASP-44464,Y1 Th4 O10,4.7545,5.0346,0.2801,jarvis_3d,jarvis,high,mp-772510,3D
JVASP-44466,Mn4 Zn4 O12,0.0031,0.0042,0.0010999999999999998,jarvis_3d,jarvis,high,mp-772528,3D
JVASP-44468,Sm2 Cu2 O6,0.0149,0.086,0.0711,jarvis_3d,jarvis,high,mp-772548,3D
JVASP-44469,Cr4 O12,2.1112,2.6106,0.4993999999999996,jarvis_3d,jarvis,high,mp-772550,3D
JVASP-44480,Rb2 Fe2 O4,0.0023,0.0048,0.0024999999999999996,jarvis_3d,jarvis,high,mp-772592,3D
JVASP-44489,Al8 C4 O4,2.9686,3.7052,0.7366000000000001,jarvis_3d,jarvis,high,mp-772624,3D
JVASP-44510,Cr6 O8,0.0007,0.0007,0.0,jarvis_3d,jarvis,high,mp-772696,3D
JVASP-44521,Na6 Si2 Sb2 C2 O14,3.2354,5.0222,1.7868,jarvis_3d,jarvis,high,mp-772713,3D
JVASP-44526,Na6 Cu2 C2 S2 O14,1.899,2.3938,0.49480000000000013,jarvis_3d,jarvis,high,mp-772726,3D
JVASP-44544,Lu2 Bi2 O6,2.4981,3.9566,1.4585,jarvis_3d,jarvis,high,mp-772801,3D
JVASP-44547,K2 Sn2 P2 C2 O14,3.2034,4.6835,1.4801000000000006,jarvis_3d,jarvis,high,mp-772809,3D
JVASP-44552,Li3 Cu3 Te1 O8,0.0012,0.0057,0.0045000000000000005,jarvis_3d,jarvis,high,mp-772822,3D
JVASP-44617,Li2 Fe3 Sn1 O8,0.0183,0.0342,0.0159,jarvis_3d,jarvis,high,mp-773220,3D
JVASP-44629,Mn1 Co4 O8,0.0028,0.0032,0.0004000000000000002,jarvis_3d,jarvis,high,mp-773238,3D
JVASP-44631,Mn8 O16,0.0067,0.0084,0.0016999999999999993,jarvis_3d,jarvis,high,mp-773240,3D
JVASP-44636,Ti2 Mn6 O16,0.0056,0.0065,0.0008999999999999998,jarvis_3d,jarvis,high,mp-773245,3D
JVASP-44645,Mn4 Ni1 O8,0.0006,0.0017,0.0010999999999999998,jarvis_3d,jarvis,high,mp-773257,3D
JVASP-44669,Lu6 W1 O12,2.8972,3.7135,0.8162999999999996,jarvis_3d,jarvis,high,mp-773285,3D
JVASP-44705,Mn1 Sb4 O12,0.4175,0.9257,0.5082,jarvis_3d,jarvis,high,mp-773338,3D
JVASP-44725,Li2 Fe2 P2 O8,0.01,3.8825,3.8725,jarvis_3d,jarvis,high,mp-773377,3D
JVASP-44760,Te3 W1 O12,1.7442,2.2831,0.5389000000000002,jarvis_3d,jarvis,high,mp-773515,3D
JVASP-44767,Li2 V2 Fe2 O8,0.004,0.0161,0.0121,jarvis_3d,jarvis,high,mp-773535,3D
JVASP-44770,Mn2 O3 F1,0.0038,0.008,0.004200000000000001,jarvis_3d,jarvis,high,mp-773543,3D
JVASP-44785,Li8 Fe2 O6 F2,0.0038,0.0112,0.0074,jarvis_3d,jarvis,high,mp-773565,3D
JVASP-44828,Li5 Cr1 O5,0.0042,0.0103,0.0061,jarvis_3d,jarvis,high,mp-770603,3D
JVASP-44991,Fe1 Sb4 O12,0.7255,1.2787,0.5531999999999999,jarvis_3d,jarvis,high,mp-770991,3D
JVASP-45135,Mn6 Te2 O16,0.0061,0.0069,0.0007999999999999995,jarvis_3d,jarvis,high,mp-771471,3D
JVASP-45185,Ti1 V4 Co1 O12,0.0049,0.0448,0.0399,jarvis_3d,jarvis,high,mp-771535,3D
JVASP-45226,Na6 V2 P2 C2 O14,0.2757,0.5216,0.24589999999999995,jarvis_3d,jarvis,high,mp-771594,3D
JVASP-45233,Li2 Cr1 Fe1 O4,0.0044,0.0089,0.0045,jarvis_3d,jarvis,high,mp-771605,3D
JVASP-45237,Li1 Ti1 V3 O10,1.5129,1.7252,0.21230000000000016,jarvis_3d,jarvis,high,mp-771609,3D
JVASP-45241,Li2 Ni2 Sn2 O8,0.0011,0.0027,0.0016,jarvis_3d,jarvis,high,mp-771613,3D
JVASP-45745,Na4 In2 P2 C2 O14,2.9942,5.0499,2.0557,jarvis_3d,jarvis,high,mp-767521,3D
JVASP-45761,Na4 Lu2 P2 C2 O14,4.7357,7.5351,2.7994000000000003,jarvis_3d,jarvis,high,mp-767562,3D
JVASP-45763,Na4 Tm2 P2 C2 O14,4.7084,7.1726,2.4642,jarvis_3d,jarvis,high,mp-767566,3D