material_id,formula,pbe_bandgap,hse_bandgap,bandgap_correction,dataset,data_source,confidence,mpid,dimensionality
JVASP-48148,Li4 Co4 Si4 O14,0.0037,0.0039,0.00019999999999999966,jarvis_3d,jarvis,high,mp-763386,3D
JVASP-48182,Li1 V1 P3 O9,0.4585,0.6813,0.2228,jarvis_3d,jarvis,high,mp-763497,3D
JVASP-48251,Li2 Ti2 V3 O10,0.0034,0.0063,0.0029000000000000002,jarvis_3d,jarvis,high,mp-763671,3D
JVASP-48314,Li12 Mn2 O4 F8,0.0111,0.1369,0.1258,jarvis_3d,jarvis,high,mp-763786,3D
JVASP-48341,Na4 V4 O12,3.0235,3.487,0.46350000000000025,jarvis_3d,jarvis,high,mp-763901,3D
JVASP-48383,Na2 Fe2 P2 O8,0.0187,0.031,0.012299999999999998,jarvis_3d,jarvis,high,mp-763946,3D
JVASP-48403,V4 O7 F5,0.013,0.0254,0.0124,jarvis_3d,jarvis,high,mp-763970,3D
JVASP-48421,V6 O11 F1,0.0046,0.0122,0.007600000000000001,jarvis_3d,jarvis,high,mp-763992,3D
JVASP-48537,Li4 V2 O4 F4,0.0013,0.0061,0.0048000000000000004,jarvis_3d,jarvis,high,mp-764218,3D
JVASP-48539,Cr4 O2 F4,0.0008,0.5697,0.5689,jarvis_3d,jarvis,high,mp-764221,3D
JVASP-48548,Li3 V1 O3 F2,2.4676,2.4862,0.018600000000000172,jarvis_3d,jarvis,high,mp-764231,3D
JVASP-48549,V4 O8 F4,2.2456,2.6601,0.41449999999999987,jarvis_3d,jarvis,high,mp-764232,3D
JVASP-48573,V2 O4 F2,1.3569,1.7257,0.3688,jarvis_3d,jarvis,high,mp-764277,3D
JVASP-48577,V2 O2 F6,2.0503,2.3766,0.3262999999999998,jarvis_3d,jarvis,high,mp-764285,3D
JVASP-48579,V4 O4 F12,2.9663,3.3173,0.351,jarvis_3d,jarvis,high,mp-764287,3D
JVASP-48583,V1 O2 F1,2.3795,3.0012,0.6216999999999997,jarvis_3d,jarvis,high,mp-764292,3D
JVASP-48586,Mn4 O2 F4,0.0008,0.0048,0.003999999999999999,jarvis_3d,jarvis,high,mp-764305,3D
JVASP-48610,Li1 Nb1 Te2 W1 O12,1.8896,2.1984,0.30879999999999996,jarvis_3d,jarvis,high,mp-764339,3D
JVASP-48629,Li1 Co1 Cu1 O4,0.0147,0.0193,0.004600000000000002,jarvis_3d,jarvis,high,mp-764366,3D
JVASP-48645,V4 O4 F12,2.815,3.1833,0.36830000000000007,jarvis_3d,jarvis,high,mp-764398,3D
JVASP-48652,Li7 V1 O5 F1,0.0011,0.0074,0.0063,jarvis_3d,jarvis,high,mp-764407,3D
JVASP-48815,Fe4 O5 F3,0.005,0.0055,0.0004999999999999996,jarvis_3d,jarvis,high,mp-764818,3D
JVASP-48879,Li1 V1 Te3 O12,1.5097,1.7506,0.2408999999999999,jarvis_3d,jarvis,high,mp-764954,3D
JVASP-48921,Li6 Fe1 O5 F1,1.0494,1.1136,0.06419999999999981,jarvis_3d,jarvis,high,mp-765049,3D
JVASP-48933,W1 O1 F4,4.3245,5.4712,1.1467,jarvis_3d,jarvis,high,mp-765135,3D
JVASP-49748,Li8 Ti1 S6,1.0175,1.2116,0.19409999999999994,jarvis_3d,jarvis,high,mp-754266,3D
JVASP-49752,Sr2 O2,3.0781,4.7686,1.6905000000000001,jarvis_3d,jarvis,high,mp-754282,3D
JVASP-49753,Ho4 H4 O8,4.8322,7.0986,2.2664,jarvis_3d,jarvis,high,mp-754283,3D
JVASP-49755,Ho2 Bi2 O6,2.423,3.9684,1.5453999999999999,jarvis_3d,jarvis,high,mp-754300,3D
JVASP-49763,Tm2 Bi2 O6,3.1778,4.1682,0.9903999999999997,jarvis_3d,jarvis,high,mp-754323,3D
JVASP-49764,Na1 Ag1 O2,0.7296,1.1782,0.4485999999999999,jarvis_3d,jarvis,high,mp-754326,3D
JVASP-49767,Ti2 O2,0.0117,0.1716,0.15990000000000001,jarvis_3d,jarvis,high,mp-754333,3D
JVASP-49768,Na2 Tm2 O4,4.6241,6.4769,1.8527999999999993,jarvis_3d,jarvis,high,mp-754334,3D
JVASP-49776,Na6 Cu2 O4,1.4224,1.9824,0.5599999999999998,jarvis_3d,jarvis,high,mp-754352,3D
JVASP-49777,Zr3 N4,1.1242,1.4949,0.3706999999999998,jarvis_3d,jarvis,high,mp-754353,3D
JVASP-49782,Ba2 Hf1 O4,3.4762,4.9183,1.4421000000000004,jarvis_3d,jarvis,high,mp-754363,3D
JVASP-49788,K8 Ti2 O8,3.4856,5.2547,1.7691,jarvis_3d,jarvis,high,mp-754377,3D
JVASP-49791,Sc2 Tl2 O4,1.1625,1.6535,0.4909999999999999,jarvis_3d,jarvis,high,mp-754384,3D
JVASP-49795,Al4 O6,4.3964,6.2122,1.8158000000000003,jarvis_3d,jarvis,high,mp-754401,3D
JVASP-49796,Zr2 O4,3.9146,4.4807,0.5660999999999996,jarvis_3d,jarvis,high,mp-754403,3D
JVASP-49801,Ho2 B2 O6,5.5108,7.194,1.6832000000000003,jarvis_3d,jarvis,high,mp-754409,3D
JVASP-49806,Ca2 Tm4 O8,3.4042,4.962,1.5577999999999999,jarvis_3d,jarvis,high,mp-754429,3D
JVASP-49807,Hf3 N4,1.1605,1.9634,0.8029,jarvis_3d,jarvis,high,mp-754434,3D
JVASP-49808,Lu2 Al2 O6,5.4364,7.1079,1.6715,jarvis_3d,jarvis,high,mp-754435,3D
JVASP-49812,Cd2 Ag4 O8,0.0138,0.876,0.8622,jarvis_3d,jarvis,high,mp-754454,3D
JVASP-49813,Sc4 O6,4.0827,5.0531,0.9703999999999997,jarvis_3d,jarvis,high,mp-754455,3D
JVASP-49820,Hf1 Zr1 O4,3.6359,4.1812,0.5452999999999997,jarvis_3d,jarvis,high,mp-754478,3D
JVASP-49833,Sr1 Ca2 I6,3.6674,4.5061,0.8386999999999998,jarvis_3d,jarvis,high,mp-754517,3D
JVASP-49834,Li1 Nb1 Te3 O12,1.7076,2.1783,0.4707000000000001,jarvis_3d,jarvis,high,mp-754519,3D
JVASP-49837,Al8 O12,4.7371,6.3411,1.604,jarvis_3d,jarvis,high,mp-754531,3D
JVASP-49842,Tm1 Tl1 O2,1.5838,2.1656,0.5817999999999999,jarvis_3d,jarvis,high,mp-754541,3D
JVASP-49848,Ho1 Tl1 O2,1.5745,2.1253,0.5508000000000002,jarvis_3d,jarvis,high,mp-754555,3D
JVASP-49853,Tm4 Ga4 O12,3.929,5.5536,1.6246000000000005,jarvis_3d,jarvis,high,mp-754578,3D
JVASP-49855,Li8 Bi1 O6,3.5954,3.6488,0.05339999999999989,jarvis_3d,jarvis,high,mp-754586,3D
JVASP-49856,K4 Be4 O6,3.6848,6.4327,2.7478999999999996,jarvis_3d,jarvis,high,mp-754587,3D
JVASP-49860,Ba2 Be2 P2 O8 F2,6.5358,8.3036,1.7677999999999994,jarvis_3d,jarvis,high,mp-754604,3D
JVASP-49864,Lu2 Nb2 O8,3.2443,3.9462,0.7019000000000002,jarvis_3d,jarvis,high,mp-754614,3D
JVASP-49865,Sm2 Ge2 O7,3.8783,6.064,2.1857,jarvis_3d,jarvis,high,mp-754621,3D
JVASP-49866,Al4 O6,6.1874,7.487,1.2995999999999999,jarvis_3d,jarvis,high,mp-754624,3D
JVASP-49880,Na4 Be4 O6,4.6486,7.3922,2.7436,jarvis_3d,jarvis,high,mp-754663,3D
JVASP-49884,Hf6 N4 O6,3.3562,4.5843,1.2281,jarvis_3d,jarvis,high,mp-754668,3D
JVASP-49897,Ca2 Ti2 O6,3.598,4.0714,0.4733999999999998,jarvis_3d,jarvis,high,mp-754701,3D
JVASP-49898,Sr2 Ca1 I6,3.6198,4.528,0.9081999999999995,jarvis_3d,jarvis,high,mp-754710,3D
JVASP-49907,Ca2 Be6 O8,4.0625,6.4175,2.3550000000000004,jarvis_3d,jarvis,high,mp-754739,3D
JVASP-49908,Zr4 O8,3.5905,4.3666,0.7761,jarvis_3d,jarvis,high,mp-754741,3D
JVASP-49911,Nb4 N4 O4,1.5335,2.026,0.4924999999999997,jarvis_3d,jarvis,high,mp-754752,3D
JVASP-49916,Tb4 Pt4 O14,1.4286,1.5506,0.12199999999999989,jarvis_3d,jarvis,high,mp-754768,3D
JVASP-49917,Ti8 O16,2.1412,2.4671,0.32589999999999986,jarvis_3d,jarvis,high,mp-754769,3D
JVASP-49919,Na1 La1 O2,4.2312,4.334,0.10279999999999934,jarvis_3d,jarvis,high,mp-754777,3D
JVASP-49921,Ga6 N2 O6,1.907,3.4127,1.5057,jarvis_3d,jarvis,high,mp-754781,3D
JVASP-49923,Sm4 Tl4 O12,0.9012,1.8572,0.956,jarvis_3d,jarvis,high,mp-754787,3D
JVASP-49924,Ti6 N4 O6,1.5621,1.9026,0.3405,jarvis_3d,jarvis,high,mp-754790,3D
JVASP-49926,Na4 Tm4 O8,4.5373,6.5132,1.9759000000000002,jarvis_3d,jarvis,high,mp-754796,3D
JVASP-49927,Bi4 Se2 O12,2.3005,3.7117,1.4112,jarvis_3d,jarvis,high,mp-754798,3D
JVASP-49931,Al4 O6,4.8512,6.3432,1.492,jarvis_3d,jarvis,high,mp-754812,3D
JVASP-49934,Er1 Tl1 O2,1.5078,2.0529,0.5451000000000001,jarvis_3d,jarvis,high,mp-754823,3D
JVASP-49935,Sr2 O2,2.7499,5.3683,2.6184,jarvis_3d,jarvis,high,mp-754824,3D
JVASP-49936,Na1 Tm1 O2,4.5345,6.5491,2.0145999999999997,jarvis_3d,jarvis,high,mp-754825,3D
JVASP-49938,Tm2 Te1 O2,0.1284,1.7288,1.6003999999999998,jarvis_3d,jarvis,high,mp-754827,3D
JVASP-49939,Hf8 N8 O4,1.1262,2.0024,0.8762000000000001,jarvis_3d,jarvis,high,mp-754833,3D
JVASP-49940,Er2 Te1 O2,0.0756,1.9278,1.8521999999999998,jarvis_3d,jarvis,high,mp-754834,3D
JVASP-49942,Hf8 N8 O4,2.448,3.4809,1.0329000000000002,jarvis_3d,jarvis,high,mp-754837,3D
JVASP-49943,Sn1 Bi1 O4,0.0064,0.2578,0.25139999999999996,jarvis_3d,jarvis,high,mp-754839,3D
JVASP-49944,Ta2 As2 O8,2.7423,4.7135,1.9711999999999996,jarvis_3d,jarvis,high,mp-754840,3D
JVASP-49946,Na2 Ti2 O5,3.0383,3.6018,0.5634999999999999,jarvis_3d,jarvis,high,mp-754843,3D
JVASP-49947,Na4 Ir2 O6,1.8042,1.9473,0.1431,jarvis_3d,jarvis,high,mp-754844,3D
JVASP-49952,Ba1 Sr1 I4,3.3175,4.4574,1.1399,jarvis_3d,jarvis,high,mp-754852,3D
JVASP-49962,K1 Ho1 O2,4.06,5.864,1.8040000000000003,jarvis_3d,jarvis,high,mp-754883,3D
JVASP-49963,Sr4 Ca4 I16,3.5461,4.412,0.8658999999999999,jarvis_3d,jarvis,high,mp-754885,3D
JVASP-49965,Rb3 Cl1 O1,0.3151,2.6088,2.2937,jarvis_3d,jarvis,high,mp-754892,3D
JVASP-49969,Y2 B6 O12,5.5991,6.7828,1.1837,jarvis_3d,jarvis,high,mp-754903,3D
JVASP-49974,Sm1 Tl1 O2,1.8497,2.398,0.5483000000000002,jarvis_3d,jarvis,high,mp-754933,3D
JVASP-49975,Dy2 Al2 O6,5.3055,6.6003,1.2947999999999995,jarvis_3d,jarvis,high,mp-754936,3D
JVASP-49979,Er2 Bi2 O6,3.1807,4.1741,0.9934000000000003,jarvis_3d,jarvis,high,mp-754943,3D
JVASP-49982,Lu4 Si4 Ru4,0.0039,0.0042,0.0002999999999999999,jarvis_3d,jarvis,high,mp-754955,3D
JVASP-49983,Hf2 Zr2 O8,4.2844,4.9857,0.7012999999999998,jarvis_3d,jarvis,high,mp-754964,3D
JVASP-49989,Y6 Al2 O12,4.6708,5.8261,1.1553000000000004,jarvis_3d,jarvis,high,mp-754979,3D
JVASP-49990,K1 V1 O2,0.0004,0.0005,9.999999999999999e-05,jarvis_3d,jarvis,high,mp-754988,3D
JVASP-49991,Er2 Bi6 O12,2.1263,3.0922,0.9659,jarvis_3d,jarvis,high,mp-754989,3D
JVASP-49993,Lu1 Tl1 O2,1.494,2.0803,0.5862999999999998,jarvis_3d,jarvis,high,mp-754992,3D
JVASP-49995,Ce2 Se1 O2,0.0003,0.0004,0.00010000000000000005,jarvis_3d,jarvis,high,mp-754998,3D
JVASP-49998,Er4 Te2 O12,2.6553,3.8511,1.1958000000000002,jarvis_3d,jarvis,high,mp-755001,3D
JVASP-50004,Li5 Ta1 O5,3.7835,4.9611,1.1776,jarvis_3d,jarvis,high,mp-755013,3D
JVASP-50006,Rb1 Ta1 O3,2.3913,3.3512,0.9598999999999998,jarvis_3d,jarvis,high,mp-755018,3D
JVASP-50007,Sr2 Ca4 I12,3.64,4.5659,0.9259,jarvis_3d,jarvis,high,mp-755020,3D
JVASP-50014,Al4 Si4 O14,5.4436,7.0295,1.5858999999999996,jarvis_3d,jarvis,high,mp-755043,3D
JVASP-50019,Ga4 Si1 O8,2.6485,4.3459,1.6974000000000005,jarvis_3d,jarvis,high,mp-755053,3D
JVASP-50020,Ti6 N4 O6,1.4833,1.8244,0.34109999999999996,jarvis_3d,jarvis,high,mp-755054,3D
JVASP-50021,Ca1 Pb1 I4,2.663,3.582,0.919,jarvis_3d,jarvis,high,mp-755056,3D
JVASP-50022,Rb4 Pr2 O6,3.6353,5.9876,2.3522999999999996,jarvis_3d,jarvis,high,mp-755057,3D
JVASP-50026,Al8 O12,4.6159,6.0382,1.4223,jarvis_3d,jarvis,high,mp-755066,3D
JVASP-50028,Sn2 O4,1.4724,3.0752,1.6028000000000002,jarvis_3d,jarvis,high,mp-755071,3D
JVASP-50029,Na4 O2,1.2119,3.6221,2.4102,jarvis_3d,jarvis,high,mp-755072,3D
JVASP-50033,Ba2 Y2 Cl10,4.1203,4.8364,0.7161,jarvis_3d,jarvis,high,mp-755083,3D
JVASP-50034,Na12 Mg2 O8,2.2765,4.7873,2.5108,jarvis_3d,jarvis,high,mp-755084,3D
JVASP-50035,Zr4 O8,4.1394,4.6384,0.49899999999999967,jarvis_3d,jarvis,high,mp-755089,3D
JVASP-50038,Dy4 Ti2 O10,2.946,3.3862,0.4401999999999999,jarvis_3d,jarvis,high,mp-755107,3D
JVASP-50044,Ti2 Bi4 O10,1.6059,2.8514,1.2454999999999998,jarvis_3d,jarvis,high,mp-755121,3D
JVASP-50047,Zr6 N4 O6,2.8458,3.3529,0.5070999999999999,jarvis_3d,jarvis,high,mp-755132,3D
JVASP-50051,Na2 Ho2 O4,4.4787,6.1993,1.7206000000000001,jarvis_3d,jarvis,high,mp-755141,3D
JVASP-50056,Y4 Sc4 O12,4.4329,5.5992,1.1662999999999997,jarvis_3d,jarvis,high,mp-755165,3D
JVASP-50058,Al8 O12,6.011,7.3017,1.2907000000000002,jarvis_3d,jarvis,high,mp-755175,3D
JVASP-50067,Yb4 C4 O12,4.2077,6.1104,1.9027000000000003,jarvis_3d,jarvis,high,mp-755213,3D
JVASP-50068,Tm2 Bi2 O6,2.5461,3.9891,1.443,jarvis_3d,jarvis,high,mp-755216,3D
JVASP-50070,Sc1 Tl1 O2,1.1183,3.7433,2.625,jarvis_3d,jarvis,high,mp-755219,3D
JVASP-50077,Li5 Cu1 S1 O2,2.4891,2.6721,0.18299999999999983,jarvis_3d,jarvis,high,mp-755243,3D
JVASP-50080,Dy2 H2 O4,4.2153,6.2637,2.0484,jarvis_3d,jarvis,high,mp-755252,3D
JVASP-50094,Li3 Nb1 S4,2.685,3.0689,0.38390000000000013,jarvis_3d,jarvis,high,mp-755309,3D
JVASP-50095,Na1 Lu1 O2,4.5459,6.827,2.2811000000000003,jarvis_3d,jarvis,high,mp-755311,3D
JVASP-50097,Sc4 O6,4.1868,4.9053,0.7185000000000006,jarvis_3d,jarvis,high,mp-755313,3D
JVASP-50098,Hf6 N6 O3,2.0569,3.1041,1.0471999999999997,jarvis_3d,jarvis,high,mp-755314,3D
JVASP-50102,Sc2 H2 O4,3.7083,4.9733,1.2650000000000001,jarvis_3d,jarvis,high,mp-755318,3D
JVASP-50104,Dy2 Cl2 O2,5.143,6.3672,1.2242000000000006,jarvis_3d,jarvis,high,mp-755323,3D
JVASP-50106,Hg1 O2,0.3887,1.5043,1.1156,jarvis_3d,jarvis,high,mp-755333,3D
JVASP-50107,Tb2 Se1 O2,2.3474,3.6546,1.3072,jarvis_3d,jarvis,high,mp-755340,3D
JVASP-50108,Lu2 Ga2 O6,2.7544,4.532,1.7776,jarvis_3d,jarvis,high,mp-755342,3D
JVASP-50116,Nd2 As2 O8,3.9466,5.6211,1.6745,jarvis_3d,jarvis,high,mp-755357,3D
JVASP-50117,Lu2 Al2 O6,4.0344,5.6573,1.6229000000000005,jarvis_3d,jarvis,high,mp-755358,3D
JVASP-50131,Ba2 Na4 O4,2.8289,4.8059,1.9770000000000003,jarvis_3d,jarvis,high,mp-755391,3D
JVASP-50139,Na4 O2,2.2075,4.7031,2.4956,jarvis_3d,jarvis,high,mp-755413,3D
JVASP-50141,Ho4 Ga4 O12,3.8977,5.5199,1.6221999999999999,jarvis_3d,jarvis,high,mp-755416,3D
JVASP-50143,Bi2 Te1 O2,0.2373,0.4787,0.2414,jarvis_3d,jarvis,high,mp-755419,3D
JVASP-50160,Rb4 O2,1.5542,4.014,2.4598000000000004,jarvis_3d,jarvis,high,mp-755459,3D
JVASP-50168,K2 Rb2 O2,1.7942,4.156,2.3617999999999997,jarvis_3d,jarvis,high,mp-755480,3D
JVASP-50170,Al2 O3,4.4994,5.8592,1.3598000000000008,jarvis_3d,jarvis,high,mp-755483,3D
JVASP-50189,Ho2 H2 O4,4.9477,6.9372,1.9894999999999996,jarvis_3d,jarvis,high,mp-755543,3D
JVASP-50190,Y1 Tl1 O2,1.5973,2.1745,0.5772000000000002,jarvis_3d,jarvis,high,mp-755544,3D
JVASP-50193,Li1 Y1 S2,0.3233,0.7908,0.46749999999999997,jarvis_3d,jarvis,high,mp-755552,3D
JVASP-50214,Y2 Se1 O2,2.3286,3.2078,0.8792000000000004,jarvis_3d,jarvis,high,mp-755609,3D
JVASP-50255,Ho2 H2 O4,4.2573,6.3269,2.0696000000000003,jarvis_3d,jarvis,high,mp-755716,3D
JVASP-50259,Rb8 O4,2.2127,3.949,1.7363,jarvis_3d,jarvis,high,mp-755738,3D
JVASP-50266,Y2 Te1 O2,1.2511,1.8251,0.5739999999999998,jarvis_3d,jarvis,high,mp-755756,3D
JVASP-50276,Tb2 Nb2 O8,3.9439,4.7289,0.7850000000000001,jarvis_3d,jarvis,high,mp-755781,3D
JVASP-50307,Na2 Dy2 O4,4.4174,6.1293,1.7119,jarvis_3d,jarvis,high,mp-755883,3D
JVASP-50316,Lu2 H6 O6,3.8318,6.177,2.3451999999999997,jarvis_3d,jarvis,high,mp-755902,3D
JVASP-50345,Ba3 Mg3 O6,3.3922,5.4131,2.0209,jarvis_3d,jarvis,high,mp-756018,3D
JVASP-50348,Na1 Sm1 O2,4.2764,5.7365,1.4601000000000006,jarvis_3d,jarvis,high,mp-756034,3D
JVASP-50349,Li1 Ti4 O8,0.0047,0.0083,0.0036,jarvis_3d,jarvis,high,mp-756035,3D
JVASP-50351,Na6 As2 O8,3.4354,6.2061,2.7707,jarvis_3d,jarvis,high,mp-756044,3D
JVASP-50361,Tb4 Ta4 O16,3.7391,4.9437,1.2045999999999997,jarvis_3d,jarvis,high,mp-756076,3D
JVASP-50362,Ba2 Na8 O6,1.8227,4.2485,2.4257999999999997,jarvis_3d,jarvis,high,mp-756084,3D
JVASP-50365,Ba2 Na8 O6,1.8046,4.2435,2.4389000000000003,jarvis_3d,jarvis,high,mp-756090,3D
JVASP-50375,Tb4 Sm4 O12,4.6606,6.1158,1.4552000000000005,jarvis_3d,jarvis,high,mp-756118,3D
JVASP-50378,Sr4 Ca2 I12,3.6338,4.4692,0.8353999999999999,jarvis_3d,jarvis,high,mp-756131,3D
JVASP-50380,Zr2 Se2 O2,0.7964,1.0368,0.24039999999999995,jarvis_3d,jarvis,high,mp-756134,3D
JVASP-50386,Mg2 Ag4 O8,0.7383,1.0341,0.29580000000000006,jarvis_3d,jarvis,high,mp-756146,3D
JVASP-50387,Sm4 Pt4 O14,1.2372,1.3676,0.13039999999999985,jarvis_3d,jarvis,high,mp-756148,3D
JVASP-50389,Rb4 Zr2 O6,3.9199,5.1188,1.1989,jarvis_3d,jarvis,high,mp-756156,3D
JVASP-50390,Er6 Ta2 O14,3.4327,4.4828,1.0501,jarvis_3d,jarvis,high,mp-756160,3D
JVASP-50400,Rb4 H4 O4,3.4221,6.0137,2.5916,jarvis_3d,jarvis,high,mp-756182,3D
JVASP-50404,Tm4 B6 O15,4.9565,7.0847,2.1281999999999996,jarvis_3d,jarvis,high,mp-756194,3D
JVASP-50425,Er6 Ta2 O14,3.5508,4.6751,1.1242999999999994,jarvis_3d,jarvis,high,mp-756277,3D
JVASP-50426,Tm4 Al4 O12,6.2469,7.703,1.4561000000000002,jarvis_3d,jarvis,high,mp-756281,3D
JVASP-50429,Tb4 Ga4 O12,3.88,6.4008,2.5208000000000004,jarvis_3d,jarvis,high,mp-756290,3D
JVASP-50439,Al4 Hg2 O8,1.5071,2.6444,1.1373,jarvis_3d,jarvis,high,mp-756317,3D
JVASP-50442,K4 Sr4 O6,2.0775,4.6926,2.6150999999999995,jarvis_3d,jarvis,high,mp-756334,3D
JVASP-50444,Tm4 Te2 O12,2.641,3.8743,1.2332999999999998,jarvis_3d,jarvis,high,mp-756339,3D
JVASP-50445,Li8 Zr2 O8,4.7321,5.6222,0.8901000000000003,jarvis_3d,jarvis,high,mp-756344,3D
JVASP-50450,Zr4 Se4 O4,2.0131,2.3989,0.3857999999999997,jarvis_3d,jarvis,high,mp-756361,3D
JVASP-50455,Lu4 Te2 O12,2.5959,3.8157,1.2198000000000002,jarvis_3d,jarvis,high,mp-756389,3D
JVASP-50460,Ta2 As2 O8,2.8798,4.1021,1.2223000000000002,jarvis_3d,jarvis,high,mp-756401,3D
JVASP-50461,Y4 H4 O8,4.9987,6.6231,1.6243999999999996,jarvis_3d,jarvis,high,mp-756402,3D
JVASP-50474,Er4 Pt4 O14,1.5912,1.7015,0.11030000000000006,jarvis_3d,jarvis,high,mp-756440,3D
JVASP-50480,Er2 Nb2 O8,3.2633,3.9568,0.6934999999999998,jarvis_3d,jarvis,high,mp-756457,3D
JVASP-50481,Er4 Al4 O12,6.1225,7.5469,1.4244000000000003,jarvis_3d,jarvis,high,mp-756458,3D
JVASP-50487,Li2 Te2 H2 O8,1.5444,1.5786,0.03420000000000001,jarvis_3d,jarvis,high,mp-756477,3D
JVASP-50492,Sr4 Ca2 I12,3.6509,4.6401,0.9892000000000003,jarvis_3d,jarvis,high,mp-756500,3D
JVASP-50516,Sr2 Lu4 O8,3.4814,5.1545,1.6730999999999998,jarvis_3d,jarvis,high,mp-756580,3D
JVASP-50518,Ti8 O16,2.3467,2.786,0.43930000000000025,jarvis_3d,jarvis,high,mp-756587,3D
JVASP-50519,Sm6 Nb2 O14,2.6584,3.16,0.5016000000000003,jarvis_3d,jarvis,high,mp-756591,3D
JVASP-50521,Er2 Ta6 O18,3.4765,4.5463,1.0697999999999994,jarvis_3d,jarvis,high,mp-756598,3D
JVASP-50524,Dy4 Al4 O12,5.8606,7.2199,1.3593000000000002,jarvis_3d,jarvis,high,mp-756630,3D
JVASP-50536,Li4 Nd4 O8,3.8653,5.8736,2.0082999999999998,jarvis_3d,jarvis,high,mp-756648,3D
JVASP-50540,Ba2 Ca2 I8,4.018,4.6756,0.6576000000000004,jarvis_3d,jarvis,high,mp-756666,3D
JVASP-50544,Al4 Ga4 O12,2.8114,4.6559,1.8445,jarvis_3d,jarvis,high,mp-756686,3D
JVASP-50608,Mg8 Ti4 O16,3.3696,3.9246,0.5549999999999997,jarvis_3d,jarvis,high,mp-757031,3D
JVASP-50613,Ba1 Ca1 I4,2.9992,4.1139,1.1147,jarvis_3d,jarvis,high,mp-757070,3D
JVASP-50615,Ba1 Ca2 I6,3.7622,4.619,0.8567999999999998,jarvis_3d,jarvis,high,mp-757074,3D
JVASP-50620,Li1 Co1 S2,0.0363,0.3552,0.3189,jarvis_3d,jarvis,high,mp-757100,3D
JVASP-50622,Rb6 Er2 O6,2.1902,4.5939,2.4036999999999997,jarvis_3d,jarvis,high,mp-757116,3D
JVASP-50628,Bi6 O8 F2,0.7573,2.2776,1.5203000000000002,jarvis_3d,jarvis,high,mp-757162,3D
JVASP-50632,Ba2 Y2 F10,6.5831,8.5925,2.0093999999999994,jarvis_3d,jarvis,high,mp-757176,3D
JVASP-50650,Sc4 Ge4 O14,3.7425,4.4602,0.7177000000000002,jarvis_3d,jarvis,high,mp-757450,3D
JVASP-50654,Li2 Ti1 Cu1 O4,0.0088,0.0096,0.0007999999999999986,jarvis_3d,jarvis,high,mp-757583,3D
JVASP-50657,Li2 Si2 Bi6 O14,3.0567,3.1481,0.0913999999999997,jarvis_3d,jarvis,high,mp-757777,3D
JVASP-50661,Li2 Ag3 F6,1.5786,3.8848,2.3061999999999996,jarvis_3d,jarvis,high,mp-757872,3D
JVASP-50664,Mg1 Al10 O16,4.8992,6.2075,1.3082999999999991,jarvis_3d,jarvis,high,mp-757911,3D
JVASP-50673,Yb4 K4 O6,2.5536,5.3702,2.8165999999999998,jarvis_3d,jarvis,high,mp-758068,3D
JVASP-50678,Sb4 O4 F12,1.8102,3.3626,1.5524,jarvis_3d,jarvis,high,mp-758096,3D
JVASP-50699,Li1 Nb1 Te3 O12,1.7121,2.8443,1.1322,jarvis_3d,jarvis,high,mp-758389,3D
JVASP-50703,Ag1 Hg1,0.0062,0.0073,0.0011000000000000003,jarvis_3d,jarvis,high,mp-758433,3D
JVASP-50727,Y1 Zr4 O9,0.0051,0.0118,0.006699999999999999,jarvis_3d,jarvis,high,mp-758784,3D
JVASP-50742,Yb2 Al2 O6,0.0592,0.095,0.0358,jarvis_3d,jarvis,high,mp-759116,3D
JVASP-50744,Li4 Ag2 F6,1.6497,4.1632,2.5134999999999996,jarvis_3d,jarvis,high,mp-759198,3D
JVASP-50745,Li1 Sb1 Te3 O12,1.3448,1.8887,0.5439,jarvis_3d,jarvis,high,mp-759207,3D
JVASP-50747,Li5 Cu1 F8,6.7166,9.9125,3.1959,jarvis_3d,jarvis,high,mp-759224,3D
JVASP-50766,Na5 Sb1 O5,1.8298,3.6566,1.8268,jarvis_3d,jarvis,high,mp-759876,3D
JVASP-50786,Ho2 Ge2 O7,3.9468,6.0445,2.0977,jarvis_3d,jarvis,high,mp-753693,3D
JVASP-50794,Sr1 Li1 Nb2 O6 F1,1.8508,2.5772,0.7263999999999999,jarvis_3d,jarvis,high,mp-753719,3D
JVASP-50802,Ta3 O7 F1,2.3771,3.5463,1.1692,jarvis_3d,jarvis,high,mp-753747,3D
JVASP-50804,Li2 Ag2 F4,0.5574,3.1615,2.6041000000000003,jarvis_3d,jarvis,high,mp-753751,3D
JVASP-50811,K1 Tm1 O2,4.2045,6.1013,1.8967999999999998,jarvis_3d,jarvis,high,mp-753774,3D
JVASP-50812,Ba1 Ca1 I4,3.1998,4.0523,0.8524999999999996,jarvis_3d,jarvis,high,mp-753775,3D
JVASP-50815,Li10 In2 O8,2.7846,4.8158,2.0312,jarvis_3d,jarvis,high,mp-753783,3D
JVASP-50824,Sc2 Ti2 O7,3.5908,4.0644,0.4735999999999998,jarvis_3d,jarvis,high,mp-753802,3D
JVASP-50826,B2 Sb2 O6,2.9199,4.1172,1.1973000000000003,jarvis_3d,jarvis,high,mp-753806,3D
JVASP-50827,Ba2 Ca2 I8,3.7204,4.495,0.7746,jarvis_3d,jarvis,high,mp-753809,3D