material_id,formula,pbe_bandgap,hse_bandgap,bandgap_correction,dataset,data_source,confidence,mpid,dimensionality
JVASP-30380,Nb1 V3 O10,1.0654,1.3886,0.32320000000000015,jarvis_3d,jarvis,high,mp-776661,3D
JVASP-30381,V4 O4 F12,2.8398,3.161,0.32120000000000015,jarvis_3d,jarvis,high,mp-776707,3D
JVASP-30383,V4 O4 F12,1.5554,1.904,0.3486,jarvis_3d,jarvis,high,mp-777080,3D
JVASP-30384,V4 O4 F12,1.5573,1.9097,0.35240000000000005,jarvis_3d,jarvis,high,mp-777100,3D
JVASP-30387,Al4 H12 O12,5.7392,7.5903,1.8510999999999997,jarvis_3d,jarvis,high,mp-777738,3D
JVASP-30393,Li2 Ni1 O2,0.4571,2.4469,1.9897999999999998,jarvis_3d,jarvis,high,mp-778781,3D
JVASP-30401,V4 O4 F12,2.8095,3.1501,0.34060000000000024,jarvis_3d,jarvis,high,mp-779966,3D
JVASP-30422,V4 O10,1.5753,2.0121,0.4368000000000003,jarvis_3d,jarvis,high,mp-849597,3D
JVASP-30423,Co2 O4,0.0049,0.0121,0.0072,jarvis_3d,jarvis,high,mp-849598,3D
JVASP-30424,Cr4 Ag4 O16,0.1504,0.9414,0.791,jarvis_3d,jarvis,high,mp-849702,3D
JVASP-30436,Co5 Sn1 O12,0.0689,0.0784,0.009499999999999995,jarvis_3d,jarvis,high,mp-853132,3D
JVASP-30438,Sb4 S4 O2,1.2906,2.0738,0.7831999999999999,jarvis_3d,jarvis,high,mp-861911,3D
JVASP-30442,V4 F16,0.0129,0.0885,0.0756,jarvis_3d,jarvis,high,mp-863878,3D
JVASP-30444,Mg2 H8 N4 O16,3.5035,4.7828,1.2793,jarvis_3d,jarvis,high,mp-864887,3D
JVASP-30449,U2 P6,0.0026,0.007,0.0044,jarvis_3d,jarvis,high,mp-865428,3D
JVASP-30450,Li2 Dy1 In1,0.0679,0.0983,0.030399999999999996,jarvis_3d,jarvis,high,mp-865580,3D
JVASP-30452,B4 S6,1.3313,2.2902,0.9589000000000001,jarvis_3d,jarvis,high,mp-866066,3D
JVASP-30454,Mg4 Pb2 O8,1.3125,2.4002,1.0877,jarvis_3d,jarvis,high,mp-867724,3D
JVASP-30460,Bi4 S8,1.1696,1.8867,0.7171000000000001,jarvis_3d,jarvis,high,mp-971673,3D
JVASP-30466,Sn1 As3,0.0007,0.0012,0.0004999999999999999,jarvis_3d,jarvis,high,mp-972472,3D
JVASP-30472,Lu2 I2 O2,3.3389,4.4861,1.1472000000000002,jarvis_3d,jarvis,high,mp-973585,3D
JVASP-30475,Lu2 Br2 O2,4.338,6.1942,1.8562000000000003,jarvis_3d,jarvis,high,mp-973981,3D
JVASP-30478,Pr2 Br2 O2,4.4171,5.56,1.1429,jarvis_3d,jarvis,high,mp-975666,3D
JVASP-30479,Lu4 H8 Cl4 O8,4.853,6.6334,1.7804000000000002,jarvis_3d,jarvis,high,mp-976349,3D
JVASP-30480,Nd4 Mg2,0.0016,0.006,0.0044,jarvis_3d,jarvis,high,mp-976425,3D
JVASP-30481,Ho2 H4 Cl2 O4,4.6936,6.3809,1.6872999999999996,jarvis_3d,jarvis,high,mp-976713,3D
JVASP-30483,P2 W8 Cl22,0.0268,0.6696,0.6427999999999999,jarvis_3d,jarvis,high,mp-977371,3D
JVASP-30485,Mg4 As2,0.0225,0.0433,0.0208,jarvis_3d,jarvis,high,mp-978259,3D
JVASP-30486,Mg2 Zn2,0.0078,0.0161,0.0083,jarvis_3d,jarvis,high,mp-978268,3D
JVASP-30490,Cr1 Ga2 S4,0.3049,0.533,0.22810000000000002,jarvis_3d,jarvis,high,mp-985304,3D
JVASP-30493,Sc2 Br2 O2,3.3929,4.1692,0.7763,jarvis_3d,jarvis,high,mp-989190,3D
JVASP-30494,Sn2 Br2 Cl2,1.3545,1.9568,0.6023000000000001,jarvis_3d,jarvis,high,mp-989194,3D
JVASP-30498,Hf1 Te1 Se4,0.7761,1.1221,0.3460000000000001,jarvis_3d,jarvis,high,mp-989651,3D
JVASP-30500,Sc2 Cl2 O2,2.6685,3.6401,0.9716,jarvis_3d,jarvis,high,mp-990436,3D
JVASP-30503,Cu1 H1 O2,0.0644,0.3145,0.2501,jarvis_3d,jarvis,high,mp-996953,3D
JVASP-30504,H1 Au1 O2,1.201,1.7357,0.5347,jarvis_3d,jarvis,high,mp-996955,3D
JVASP-30507,Ag2 Bi2 O4,1.3039,2.3267,1.0228000000000002,jarvis_3d,jarvis,high,mp-996969,3D
JVASP-30510,Au2 O4 F2,0.884,1.2302,0.34619999999999995,jarvis_3d,jarvis,high,mp-997027,3D
JVASP-30511,Ag2 O4 F2,0.022,2.6297,2.6077000000000004,jarvis_3d,jarvis,high,mp-997028,3D
JVASP-30512,Au2 Br2 O4,0.2542,0.9084,0.6542,jarvis_3d,jarvis,high,mp-997033,3D
JVASP-30513,Cu2 O4 F2,0.0317,0.1089,0.07719999999999999,jarvis_3d,jarvis,high,mp-997035,3D
JVASP-30514,Rb2 Ag2 O4,1.1391,1.447,0.30790000000000006,jarvis_3d,jarvis,high,mp-997052,3D
JVASP-30515,K2 Ag2 O4,1.0346,1.4458,0.4112,jarvis_3d,jarvis,high,mp-997088,3D
JVASP-30519,Al4 P4,1.1356,1.9259,0.7903,jarvis_3d,jarvis,high,mp-997569,3D
JVASP-30521,Ni1 H1 O2,0.0032,0.0052,0.0019999999999999996,jarvis_3d,jarvis,high,mp-999337,3D
JVASP-30522,Mg2 Ti8 O18,2.3629,2.7898,0.4269000000000003,jarvis_3d,jarvis,high,mvc-10067,3D
JVASP-30523,Ti8 Zn2 O18,2.4407,2.9163,0.4756,jarvis_3d,jarvis,high,mvc-10084,3D
JVASP-30594,Ti2 F8,4.8554,5.2726,0.41719999999999935,jarvis_3d,jarvis,high,mvc-13239,3D
JVASP-30634,W3 O8,0.199,0.416,0.21699999999999997,jarvis_3d,jarvis,high,mvc-15486,3D
JVASP-30660,Ta4 Mo2 O16,0.8239,1.0601,0.23620000000000008,jarvis_3d,jarvis,high,mvc-2968,3D
JVASP-30671,Al6 Sb6 O18,1.2987,2.0486,0.7499,jarvis_3d,jarvis,high,mvc-3506,3D
JVASP-30681,Nb4 Mo2 O16,1.4032,1.8747,0.47150000000000003,jarvis_3d,jarvis,high,mvc-479,3D
JVASP-30687,Sb8 O16,1.0208,1.9154,0.8946000000000001,jarvis_3d,jarvis,high,mvc-5746,3D
JVASP-30715,Sn1 W2 O8,0.9816,4.0401,3.0584999999999996,jarvis_3d,jarvis,high,mvc-668,3D
JVASP-30720,Ti1 W2 O8,1.0869,3.0127,1.9258000000000002,jarvis_3d,jarvis,high,mvc-678,3D
JVASP-30721,Mg4 Sn8 O16,2.2137,3.3531,1.1394000000000002,jarvis_3d,jarvis,high,mvc-6826,3D
JVASP-30754,Ti4 Zn4 Ge8 O24,2.0741,2.6675,0.5933999999999999,jarvis_3d,jarvis,high,mvc-8162,3D
JVASP-30761,Mg2 Ge4 W2 O12,1.85,2.5019,0.6518999999999999,jarvis_3d,jarvis,high,mvc-8418,3D
JVASP-30780,Mg4 Ti12 O28,2.8755,3.4547,0.5791999999999997,jarvis_3d,jarvis,high,mvc-8898,3D
JVASP-31825,Al6 Br24,4.8084,6.3614,1.553,jarvis_3d,jarvis,high,mp-39008,3D
JVASP-31829,H12 O6 F6 Co1 Sn1,0.2019,1.8723,1.6704,jarvis_3d,jarvis,high,mp-505208,3D
JVASP-31839,C4 Co1 O4,4.0626,4.4126,0.35000000000000053,jarvis_3d,jarvis,high,mp-543072,3D
JVASP-31842,Ti2 S2 Cl12 O2,2.3171,2.531,0.2139000000000002,jarvis_3d,jarvis,high,mp-554370,3D
JVASP-31854,Cu1 H12 N10 O8,0.397,1.1456,0.7485999999999999,jarvis_3d,jarvis,high,mp-556842,3D
JVASP-31871,Ta2 Te4 Br10 O1,0.8451,1.1074,0.2623,jarvis_3d,jarvis,high,mp-560333,3D
JVASP-31882,Fe2 N6 Cl2 O6,1.2939,1.9005,0.6066,jarvis_3d,jarvis,high,mp-566054,3D
JVASP-31890,Mo6 Cl24,0.0044,0.0048,0.0003999999999999993,jarvis_3d,jarvis,high,mp-569005,3D
JVASP-31900,Nb2 Te8 I12,0.0282,0.9313,0.9031,jarvis_3d,jarvis,high,mp-570873,3D
JVASP-31901,Sb1 I3 Br2 Cl6,0.7613,1.7412,0.9799000000000001,jarvis_3d,jarvis,high,mp-570962,3D
JVASP-31902,Se8 N4 Cl12,0.8403,1.1918,0.3514999999999999,jarvis_3d,jarvis,high,mp-571134,3D
JVASP-31903,Ga2 Cl6,3.9191,6.0209,2.1018000000000003,jarvis_3d,jarvis,high,mp-571266,3D
JVASP-31920,Fe2 Se2 Br14,0.5848,1.0629,0.47809999999999997,jarvis_3d,jarvis,high,mp-607953,3D
JVASP-31934,H4 N2 O3,0.0861,0.394,0.3079,jarvis_3d,jarvis,high,mp-625635,3D
JVASP-31941,Cu1 H12 I4 N4,0.7772,1.1069,0.3297,jarvis_3d,jarvis,high,mp-634716,3D
JVASP-31945,H16 Pd2 N4 Cl12,1.0674,1.7517,0.6843000000000001,jarvis_3d,jarvis,high,mp-643735,3D
JVASP-31950,P4 Br28,1.2967,2.1497,0.8530000000000002,jarvis_3d,jarvis,high,mp-647343,3D
JVASP-31963,Re2 Se4 Cl24,0.9218,1.2906,0.3688,jarvis_3d,jarvis,high,mp-652695,3D
JVASP-31972,Te2 W2 Cl18,0.0055,0.0102,0.004700000000000001,jarvis_3d,jarvis,high,mp-669325,3D
JVASP-31979,Si1 H2 O1,0.0005,0.0013,0.0007999999999999999,jarvis_3d,jarvis,high,mp-675098,3D
JVASP-31987,H8 N3 O6,1.2341,2.5865,1.3524,jarvis_3d,jarvis,high,mp-676050,3D
JVASP-32062,Zn2 B16 H16 N8,0.0078,0.0147,0.0069,jarvis_3d,jarvis,high,mp-720897,3D
JVASP-32106,Sb2 Te4 F12,0.7832,0.9581,0.17489999999999994,jarvis_3d,jarvis,high,mp-754462,3D
JVASP-32150,H4 C1,7.8908,11.9808,4.090000000000001,jarvis_3d,jarvis,high,mp-1021328,3D
JVASP-32164,C4 O12 Pb4,3.4184,4.868,1.4496000000000002,jarvis_3d,jarvis,high,mp-19893,3D
JVASP-32171,F12 Cl8 As4,2.9283,3.9539,1.0255999999999998,jarvis_3d,jarvis,high,mp-23444,3D
JVASP-32180,H12 O9 Mg1 Te1,4.3379,5.9883,1.6503999999999994,jarvis_3d,jarvis,high,mp-23888,3D
JVASP-32188,H8 N2 O8 I2,2.4388,3.7347,1.2959,jarvis_3d,jarvis,high,mp-24087,3D
JVASP-32220,O4 Cl12 Mo4,1.0461,1.1574,0.11129999999999995,jarvis_3d,jarvis,high,mp-25062,3D
JVASP-32228,H12 O6 F6 Ni1 Sn1,0.7586,2.4738,1.7152000000000003,jarvis_3d,jarvis,high,mp-25607,3D
JVASP-32241,F16 Cl2 Sb2,3.1882,3.8811,0.6928999999999998,jarvis_3d,jarvis,high,mp-27314,3D
JVASP-32247,F12 As2 I6,1.1942,2.7,1.5058000000000002,jarvis_3d,jarvis,high,mp-27445,3D
JVASP-32274,Si4 F4 H12,5.9103,9.221,3.3106999999999998,jarvis_3d,jarvis,high,mp-28289,3D
JVASP-32287,Si6 Cl16 C2,4.5322,5.7533,1.2211000000000007,jarvis_3d,jarvis,high,mp-28813,3D
JVASP-32309,Br18 Te2 Ta2,1.9841,2.4409,0.4568000000000001,jarvis_3d,jarvis,high,mp-29716,3D
JVASP-32321,Cl16 Ge4,3.7647,5.8583,2.0936,jarvis_3d,jarvis,high,mp-30086,3D
JVASP-32341,Se8 Cl8,1.8415,3.1242,1.2827000000000002,jarvis_3d,jarvis,high,mp-504825,3D
JVASP-32345,O2 Cl8 Mo2,1.3608,1.7921,0.4313,jarvis_3d,jarvis,high,mp-505000,3D
JVASP-32381,Te2 Ta2 Cl18,2.524,3.4646,0.9405999999999999,jarvis_3d,jarvis,high,mp-541877,3D
JVASP-32398,C1 Cl6 B4 O1,4.0596,5.282,1.2224000000000004,jarvis_3d,jarvis,high,mp-545479,3D
JVASP-32400,O8 Ru2,2.3578,2.6221,0.2643,jarvis_3d,jarvis,high,mp-547094,3D
JVASP-32414,Si2 C2 Cl6 F6,6.1174,7.7598,1.6424000000000003,jarvis_3d,jarvis,high,mp-554491,3D
JVASP-32431,H26 C8 N2 F4,6.9988,8.8687,1.8699000000000003,jarvis_3d,jarvis,high,mp-554840,3D
JVASP-32441,Sb1 S2 N1 Cl6,1.1806,2.0509,0.8702999999999999,jarvis_3d,jarvis,high,mp-555056,3D
JVASP-32465,C2 S4 N2 F10,2.9626,3.9155,0.9529000000000001,jarvis_3d,jarvis,high,mp-555513,3D
JVASP-32484,Os2 C8 Cl4 O8,2.3372,3.5545,1.2172999999999998,jarvis_3d,jarvis,high,mp-555997,3D
JVASP-32531,Tl4 H4 C4 O8,3.4021,4.651,1.2489,jarvis_3d,jarvis,high,mp-557687,3D
JVASP-32555,B2 H18 C6 O6,6.1049,8.8943,2.7893999999999997,jarvis_3d,jarvis,high,mp-558506,3D
JVASP-32584,B2 H22 C8 N2 Cl2 F8,6.5085,8.2171,1.7086000000000006,jarvis_3d,jarvis,high,mp-559235,3D
JVASP-32634,Sb2 Cl2 O4 F12,2.1533,2.1737,0.020399999999999974,jarvis_3d,jarvis,high,mp-560354,3D
JVASP-32676,As4 Pb8 S12 I2 Cl2,1.8009,2.5815,0.7806000000000002,jarvis_3d,jarvis,high,mp-561299,3D
JVASP-32677,H28 C6 N2 F10,7.6846,10.9939,3.3093000000000004,jarvis_3d,jarvis,high,mp-561300,3D
JVASP-32687,O4 Co1 Cl3 Sn1 C4,2.6011,2.775,0.17389999999999972,jarvis_3d,jarvis,high,mp-561708,3D
JVASP-32689,C4 S4 N4 F20,4.1801,6.7341,2.5539999999999994,jarvis_3d,jarvis,high,mp-562018,3D
JVASP-32735,In4 I12,1.8785,2.8295,0.9509999999999998,jarvis_3d,jarvis,high,mp-567789,3D
JVASP-32744,Pd1 Se6 Br2,0.7845,1.2249,0.4404000000000001,jarvis_3d,jarvis,high,mp-568146,3D
JVASP-32747,Si2 Se4,1.141,1.6769,0.5359,jarvis_3d,jarvis,high,mp-568313,3D
JVASP-32749,Bi4 I4,0.051,1.0145,0.9634999999999999,jarvis_3d,jarvis,high,mp-568388,3D
JVASP-32759,Bi8 Br8,0.1733,0.8974,0.7241,jarvis_3d,jarvis,high,mp-568758,3D
JVASP-32768,Zr2 Cl8,3.4949,3.8526,0.3576999999999999,jarvis_3d,jarvis,high,mp-569175,3D
JVASP-32778,Bi4 Se4 Br4,1.5835,2.2331,0.6496,jarvis_3d,jarvis,high,mp-569707,3D
JVASP-32781,Al4 B12 H48,6.2225,8.4224,2.1998999999999995,jarvis_3d,jarvis,high,mp-569787,3D
JVASP-32786,Sb4 Br12,2.8658,3.6825,0.8167,jarvis_3d,jarvis,high,mp-570005,3D
JVASP-32793,Nb2 As2 P2 Cl26,2.2684,2.8981,0.6296999999999997,jarvis_3d,jarvis,high,mp-570225,3D
JVASP-32820,Sn4 I4 Cl4,2.4622,3.1518,0.6896,jarvis_3d,jarvis,high,mp-571146,3D
JVASP-32828,Sn1 I4,0.6818,1.2602,0.5784,jarvis_3d,jarvis,high,mp-571436,3D
JVASP-32854,Si4 Br16,3.9864,5.2103,1.2239,jarvis_3d,jarvis,high,mp-574086,3D
JVASP-32942,Bi4 Se4 Cl4,1.867,2.5903,0.7233,jarvis_3d,jarvis,high,mp-610491,3D
JVASP-32986,I2 F14,1.5131,2.3779,0.8648,jarvis_3d,jarvis,high,mp-623958,3D
JVASP-33004,H20 N4 O4,4.8195,8.5214,3.7019,jarvis_3d,jarvis,high,mp-625927,3D
JVASP-33006,Te1 H6 O6,1.9338,3.0397,1.1058999999999999,jarvis_3d,jarvis,high,mp-625950,3D
JVASP-33027,H2 F2,7.3482,10.9387,3.5905000000000005,jarvis_3d,jarvis,high,mp-632296,3D
JVASP-33032,B4 H12,5.4382,8.108,2.6698000000000004,jarvis_3d,jarvis,high,mp-634117,3D
JVASP-33040,Al4 Bi4 Se4 Cl16,2.6248,3.3219,0.6970999999999998,jarvis_3d,jarvis,high,mp-637206,3D
JVASP-33058,H4 O4 F4,3.1986,4.778,1.5793999999999997,jarvis_3d,jarvis,high,mp-642810,3D
JVASP-33059,Cu1 H6 N4 O4,0.6935,1.7587,1.0652,jarvis_3d,jarvis,high,mp-643052,3D
JVASP-33064,Si2 H12 N4 F8,6.8679,9.9345,3.0666,jarvis_3d,jarvis,high,mp-643277,3D
JVASP-33181,Ru2 C8 O8,2.1682,2.2356,0.06739999999999968,jarvis_3d,jarvis,high,mp-655353,3D
JVASP-33226,Sn7 S2 Br10,1.8934,2.4186,0.5252000000000001,jarvis_3d,jarvis,high,mp-674324,3D
JVASP-33304,Cu1 Sn1 H12 N2 O6,1.766,3.1051,1.3391000000000002,jarvis_3d,jarvis,high,mp-696152,3D
JVASP-33312,B6 H14 C2 O2,4.0735,5.4132,1.3396999999999997,jarvis_3d,jarvis,high,mp-696308,3D
JVASP-33313,B2 H6 O2 F8,8.0969,11.5814,3.4845000000000006,jarvis_3d,jarvis,high,mp-696379,3D
JVASP-33314,Zn2 H16 C4 S4 N12,4.3049,5.2747,0.9698000000000002,jarvis_3d,jarvis,high,mp-696420,3D
JVASP-33315,B5 H9,5.505,6.7561,1.2511,jarvis_3d,jarvis,high,mp-696597,3D
JVASP-33317,B4 H16 O8 F12,7.5277,11.012,3.4843,jarvis_3d,jarvis,high,mp-696656,3D
JVASP-33318,H8 N2 Cl2 O4,2.9355,4.3307,1.3952,jarvis_3d,jarvis,high,mp-696666,3D
JVASP-33320,Ti1 H12 C2 N6 F6,2.4509,3.0176,0.5667,jarvis_3d,jarvis,high,mp-696940,3D
JVASP-33330,Si1 H12 C2 N6 F6,5.0702,7.0282,1.9580000000000002,jarvis_3d,jarvis,high,mp-697253,3D
JVASP-33344,Sn2 H16 C8 I8,3.009,4.0237,1.0147,jarvis_3d,jarvis,high,mp-698357,3D
JVASP-33364,H14 S2 N4 O8,5.6127,7.7277,2.1149999999999993,jarvis_3d,jarvis,high,mp-703297,3D
JVASP-33415,P4 H24 N8 O8,5.0382,7.494,2.4558,jarvis_3d,jarvis,high,mp-706622,3D
JVASP-33602,Mo2 H4 Cl4 O6,2.321,2.7254,0.40439999999999987,jarvis_3d,jarvis,high,mp-743614,3D
JVASP-33678,Mg2 C4 O8,3.5439,5.162,1.6181,jarvis_3d,jarvis,high,mp-754005,3D
JVASP-33679,B2 Cl2 O4 F8,2.1505,2.319,0.16849999999999987,jarvis_3d,jarvis,high,mp-754459,3D
JVASP-33718,F4,2.6376,3.7832,1.1456,jarvis_3d,jarvis,high,mp-760482,3D
JVASP-33798,Se2 I4,0.8425,1.4369,0.5944,jarvis_3d,jarvis,high,mp-861871,3D
JVASP-33799,Se2 Br4,0.8811,1.872,0.9909000000000001,jarvis_3d,jarvis,high,mp-861891,3D
JVASP-33800,B1 H6 C1 N3 F4,5.668,7.4022,1.7341999999999995,jarvis_3d,jarvis,high,mp-862539,3D
JVASP-33801,Sb2 H8 Pt1 O4 F12,1.7644,2.6439,0.8795,jarvis_3d,jarvis,high,mp-862678,3D
JVASP-33802,Te2 I4,0.0672,1.1124,1.0452000000000001,jarvis_3d,jarvis,high,mp-862773,3D
JVASP-33803,Pr2 I6,1.5771,2.584,1.0069000000000001,jarvis_3d,jarvis,high,mp-862800,3D
JVASP-33812,Nd2 I6,1.5844,2.6287,1.0442999999999998,jarvis_3d,jarvis,high,mp-864617,3D
JVASP-33813,Ho2 I6,1.7375,2.5192,0.7817000000000001,jarvis_3d,jarvis,high,mp-864657,3D
JVASP-33814,Ho2 Cl6,3.2534,4.4381,1.1847000000000003,jarvis_3d,jarvis,high,mp-864662,3D
JVASP-33818,Br2 Cl2,0.303,2.2849,1.9819,jarvis_3d,jarvis,high,mp-864928,3D
JVASP-33819,Dy2 Br6,2.5371,3.9498,1.4127,jarvis_3d,jarvis,high,mp-864982,3D
JVASP-33820,Dy2 I6,1.716,2.5736,0.8575999999999999,jarvis_3d,jarvis,high,mp-865005,3D
JVASP-33823,Lu2 Cl6,3.3927,5.3002,1.9075000000000002,jarvis_3d,jarvis,high,mp-865324,3D
JVASP-33824,Tm2 I6,1.8021,2.7435,0.9414,jarvis_3d,jarvis,high,mp-865353,3D
JVASP-33825,Ti1 H8 N2 F6,4.6803,4.7617,0.08140000000000036,jarvis_3d,jarvis,high,mp-865466,3D
JVASP-33828,Lu2 I6,1.8602,2.7248,0.8646,jarvis_3d,jarvis,high,mp-865521,3D
JVASP-33829,Er2 I6,1.7726,2.5586,0.7860000000000003,jarvis_3d,jarvis,high,mp-866003,3D
JVASP-33830,Lu2 Br6,2.6949,4.2067,1.5117999999999996,jarvis_3d,jarvis,high,mp-866214,3D
JVASP-33837,Tb2 I6,1.6907,2.5686,0.8778999999999999,jarvis_3d,jarvis,high,mp-867231,3D
JVASP-33838,Tb2 Br6,2.5111,3.9355,1.4244000000000003,jarvis_3d,jarvis,high,mp-867247,3D
JVASP-33839,Te2 Br4,0.6726,1.6049,0.9323,jarvis_3d,jarvis,high,mp-867355,3D
JVASP-33845,Sm2 Cl6,3.1039,4.8823,1.7784,jarvis_3d,jarvis,high,mp-867875,3D
JVASP-33846,Er2 Cl6,3.294,5.1284,1.8344,jarvis_3d,jarvis,high,mp-867891,3D
JVASP-33847,Sm2 I6,1.6139,2.8732,1.2593000000000003,jarvis_3d,jarvis,high,mp-867893,3D
JVASP-33859,Si1 H8,7.2961,9.0917,1.7955999999999994,jarvis_3d,jarvis,high,mp-972825,3D
JVASP-33867,Ho2 Br6,2.5614,3.9784,1.4170000000000003,jarvis_3d,jarvis,high,mp-977375,3D
JVASP-33874,H6 F4,8.8356,12.759,3.923400000000001,jarvis_3d,jarvis,high,mp-983357,3D
JVASP-33878,H8 C4,6.5591,8.9139,2.3548,jarvis_3d,jarvis,high,mp-985782,3D
JVASP-33885,C4 O8,4.3398,6.2499,1.9101,jarvis_3d,jarvis,high,mp-995198,3D
JVASP-33896,In1 Ge1 Cl3,1.3724,2.0564,0.6839999999999999,jarvis_3d,jarvis,high,mp-998233,3D
JVASP-33905,Mo8 S8 Te8,0.8762,1.1079,0.23170000000000013,jarvis_3d,jarvis,high,Ben-100332,3D
JVASP-33907,Mo6 S5 Te7,0.7867,0.9526,0.16590000000000005,jarvis_3d,jarvis,high,Ben-1004,3D
JVASP-33908,Mo8 S4 Te12,0.7761,1.011,0.2348999999999999,jarvis_3d,jarvis,high,Ben-100681,3D
JVASP-33918,Mo6 S5 Te7,0.761,0.9221,0.16110000000000002,jarvis_3d,jarvis,high,Ben-1081,3D
JVASP-33922,Mo4 S4 Te4,0.7039,0.9886,0.28470000000000006,jarvis_3d,jarvis,high,Ben-10,3D
JVASP-33932,Mo6 S4 Te8,0.8491,1.1311,0.28200000000000003,jarvis_3d,jarvis,high,Ben-1255,3D
JVASP-33935,Mo4 S4 Te4,0.8217,1.1584,0.3367000000000001,jarvis_3d,jarvis,high,Ben-139,3D
JVASP-33944,Mo8 S7 Te9,0.8794,1.0876,0.20819999999999994,jarvis_3d,jarvis,high,Ben-16224,3D
JVASP-33950,Mo4 S3 Te5,0.7077,0.9537,0.246,jarvis_3d,jarvis,high,Ben-184,3D
JVASP-33968,Mo4 S4 Te4,0.0054,0.0176,0.0122,jarvis_3d,jarvis,high,Ben-255,3D
JVASP-33973,Mo6 S5 Te7,0.7376,0.9795,0.2419,jarvis_3d,jarvis,high,Ben-2620,3D
JVASP-33992,Mo6 S4 Te8,0.0393,0.9144,0.8751,jarvis_3d,jarvis,high,Ben-3012,3D
JVASP-33995,Mo6 S5 Te7,0.1042,0.4527,0.3485,jarvis_3d,jarvis,high,Ben-3016,3D
JVASP-34002,Mo6 S4 Te8,0.7478,1.0548,0.30699999999999994,jarvis_3d,jarvis,high,Ben-3069,3D
JVASP-34004,Mo6 S4 Te8,0.1823,0.9156,0.7333,jarvis_3d,jarvis,high,Ben-3134,3D
JVASP-34013,Mo6 S6 Te6,0.8833,1.1801,0.29679999999999995,jarvis_3d,jarvis,high,Ben-3328,3D
JVASP-34017,Mo4 S4 Te4,0.8223,1.1589,0.3366,jarvis_3d,jarvis,high,Ben-33,3D
JVASP-34018,Mo6 S5 Te7,0.7031,0.9325,0.22940000000000005,jarvis_3d,jarvis,high,Ben-3423,3D
JVASP-34030,Mo6 S5 Te7,0.7035,0.9324,0.2289,jarvis_3d,jarvis,high,Ben-3786,3D
JVASP-34033,Mo6 S4 Te8,0.8394,1.1016,0.2621999999999999,jarvis_3d,jarvis,high,Ben-3826,3D
JVASP-34040,Mo2 S2 Te2,0.606,0.8748,0.26880000000000004,jarvis_3d,jarvis,high,Ben-3,3D
JVASP-34043,Mo6 S4 Te8,0.8494,1.1247,0.2753,jarvis_3d,jarvis,high,Ben-4222,3D
JVASP-34046,Mo4 S1 Te7,0.0203,0.7274,0.7071000000000001,jarvis_3d,jarvis,high,Ben-43,3D
JVASP-34052,Mo2 S2 Te2,0.0017,0.4963,0.49460000000000004,jarvis_3d,jarvis,high,Ben-4,3D
JVASP-34071,Mo6 S4 Te8,0.8162,1.0015,0.18530000000000002,jarvis_3d,jarvis,high,Ben-619,3D
JVASP-34072,Mo8 S6 Te10,0.7511,0.8717,0.12060000000000004,jarvis_3d,jarvis,high,Ben-63182,3D
JVASP-34078,Mo8 S6 Te10,0.7442,0.8656,0.12140000000000006,jarvis_3d,jarvis,high,Ben-66751,3D
JVASP-34080,Mo2 S1 Te3,0.1494,0.4296,0.2802,jarvis_3d,jarvis,high,Ben-6,3D
JVASP-34104,Mo8 S8 Te8,0.9021,1.1067,0.2046,jarvis_3d,jarvis,high,Ben-89158,3D
JVASP-34125,Mo8 S6 Te10,0.7419,1.054,0.31210000000000004,jarvis_3d,jarvis,high,Ben-96198,3D
JVASP-34127,Mo8 S6 Te10,0.7744,0.8712,0.0968,jarvis_3d,jarvis,high,Ben-96424,3D
JVASP-34132,Mo8 S8 Te8,0.9208,1.2079,0.2871,jarvis_3d,jarvis,high,Ben-97968,3D
JVASP-34134,Mo8 S9 Te7,0.8448,1.0897,0.2448999999999999,jarvis_3d,jarvis,high,Ben-98122,3D
JVASP-47535,Rb4 Co2 O6,0.0639,0.0894,0.025499999999999995,jarvis_3d,jarvis,high,mp-761568,3D
JVASP-47586,Na8 Ti2 O8,3.4884,5.2439,1.7555,jarvis_3d,jarvis,high,mp-761683,3D
JVASP-47611,Li2 Cr1 Co3 O8,0.02,0.0401,0.020099999999999996,jarvis_3d,jarvis,high,mp-761748,3D
JVASP-47639,Hf3 Sn1 O8,3.7212,5.5438,1.8226,jarvis_3d,jarvis,high,mp-761842,3D
JVASP-47709,Ba2 C2 O6,4.4821,6.3988,1.9166999999999996,jarvis_3d,jarvis,high,mp-762225,3D
JVASP-47737,Bi4 O4 F4,3.279,4.7578,1.4787999999999997,jarvis_3d,jarvis,high,mp-762304,3D
JVASP-47741,Nb4 O4 F12,3.733,4.6796,0.9465999999999997,jarvis_3d,jarvis,high,mp-762371,3D
JVASP-47969,Li4 Ni4 P4 O16,0.0327,0.0401,0.007399999999999997,jarvis_3d,jarvis,high,mp-763061,3D
JVASP-47996,Li2 Mn1 F4,0.0082,0.0128,0.0046,jarvis_3d,jarvis,high,mp-763098,3D
JVASP-48075,Li2 Co2 Si2 O8,0.0035,0.0065,0.0029999999999999996,jarvis_3d,jarvis,high,mp-763240,3D
JVASP-48122,Fe4 O6 F2,0.0035,0.0071,0.0036000000000000003,jarvis_3d,jarvis,high,mp-763341,3D
JVASP-48133,Fe4 O7 F1,0.0135,0.0136,9.99999999999994e-05,jarvis_3d,jarvis,high,mp-763356,3D
JVASP-48134,Li1 P2 W1 O8,0.0055,0.0144,0.0089,jarvis_3d,jarvis,high,mp-763357,3D