material_id,formula,pbe_bandgap,hse_bandgap,bandgap_correction,dataset,data_source,confidence,mpid,dimensionality
JVASP-29248,P12 Br4 Hg8,0.9577,1.7243,0.7666,jarvis_3d,jarvis,high,mp-28874,3D
JVASP-29255,F20 Zr2 Pb6,4.7949,5.3398,0.5449000000000002,jarvis_3d,jarvis,high,mp-29232,3D
JVASP-29257,O16 Se2 Te6,2.7929,4.3816,1.5886999999999998,jarvis_3d,jarvis,high,mp-29320,3D
JVASP-29262,O20 Se4 Bi8,2.9112,4.2462,1.335,jarvis_3d,jarvis,high,mp-29839,3D
JVASP-29281,C4 Cd2 N4,5.4926,7.357,1.8643999999999998,jarvis_3d,jarvis,high,mp-34656,3D
JVASP-29282,C4 N4 Zn2,5.8964,6.2125,0.3161000000000005,jarvis_3d,jarvis,high,mp-35751,3D
JVASP-29285,C4 Mg2 N4,6.2468,7.5978,1.351,jarvis_3d,jarvis,high,mp-36940,3D
JVASP-29288,C4 N4 Cd2,6.1505,7.4003,1.2497999999999996,jarvis_3d,jarvis,high,mp-4077,3D
JVASP-29292,Tb2 O4 H2,4.8402,6.4347,1.5945,jarvis_3d,jarvis,high,mp-504474,3D
JVASP-29294,In8 Te8 Cl8,1.5513,2.4722,0.9209,jarvis_3d,jarvis,high,mp-504630,3D
JVASP-29310,Ce2 P6 O14 H16,0.3336,3.1795,2.8459,jarvis_3d,jarvis,high,mp-505610,3D
JVASP-29315,O10 V4,1.3889,1.7464,0.35749999999999993,jarvis_3d,jarvis,high,mp-510568,3D
JVASP-29333,Tl4 Cu4 P4 O16,0.0028,0.0692,0.0664,jarvis_3d,jarvis,high,mp-541201,3D
JVASP-29339,Nb2 Se4 Br4,0.9122,1.3407,0.4285,jarvis_3d,jarvis,high,mp-541667,3D
JVASP-29344,Pb6 P4 O16,3.655,4.9044,1.2494,jarvis_3d,jarvis,high,mp-542152,3D
JVASP-29365,Ni1 O2,0.1372,0.5765,0.4393,jarvis_3d,jarvis,high,mp-543096,3D
JVASP-29367,Sn2 O2,1.9226,2.9992,1.0766,jarvis_3d,jarvis,high,mp-545552,3D
JVASP-29369,C2 N2 Ag2 O2,1.3709,2.7041,1.3332,jarvis_3d,jarvis,high,mp-545730,3D
JVASP-29376,O4 Pb4,2.2942,3.3157,1.0215,jarvis_3d,jarvis,high,mp-550714,3D
JVASP-29377,Ti1 O6 Zn1 Bi2,1.6894,2.3311,0.6417000000000002,jarvis_3d,jarvis,high,mp-550998,3D
JVASP-29385,Al2 H6 O6,5.3262,7.3378,2.0115999999999996,jarvis_3d,jarvis,high,mp-554002,3D
JVASP-29390,Mg8 Si8 O24,4.1107,5.8526,1.7419000000000002,jarvis_3d,jarvis,high,mp-554137,3D
JVASP-29391,Cu2 Bi2 S2 Cl4,0.0981,0.6126,0.5145000000000001,jarvis_3d,jarvis,high,mp-554238,3D
JVASP-29398,F8 V2,0.0007,0.0013,0.0006,jarvis_3d,jarvis,high,mp-554799,3D
JVASP-29400,Y4 Te10 O26,3.0525,4.5809,1.5283999999999995,jarvis_3d,jarvis,high,mp-554852,3D
JVASP-29401,Al2 H6 O6,5.4063,7.3429,1.9366000000000003,jarvis_3d,jarvis,high,mp-554883,3D
JVASP-29402,Hg2 Bi4 S8,1.0418,1.7995,0.7577,jarvis_3d,jarvis,high,mp-554921,3D
JVASP-29408,Pb4 S2 O10,3.218,4.7595,1.5415,jarvis_3d,jarvis,high,mp-555153,3D
JVASP-29411,Tm4 Te10 O26,3.0285,4.5885,1.5599999999999996,jarvis_3d,jarvis,high,mp-555236,3D
JVASP-29413,Tc4 O12 F4,2.5742,3.0597,0.48550000000000004,jarvis_3d,jarvis,high,mp-555390,3D
JVASP-29414,Al4 H12 O12,5.5231,7.4357,1.9125999999999994,jarvis_3d,jarvis,high,mp-555462,3D
JVASP-29417,Te4 S2 O14,3.6337,5.2711,1.6373999999999995,jarvis_3d,jarvis,high,mp-555902,3D
JVASP-29421,Mg4 H24 C8 O24,4.9629,6.8594,1.8964999999999996,jarvis_3d,jarvis,high,mp-556127,3D
JVASP-29422,In4 Ga2 Bi2 S12,1.7903,2.7606,0.9703000000000002,jarvis_3d,jarvis,high,mp-556231,3D
JVASP-29431,Cd4 Sb4 S8 Cl4,1.706,2.429,0.7229999999999999,jarvis_3d,jarvis,high,mp-557049,3D
JVASP-29437,Sm2 Ti3 Bi2 O12,2.056,2.3528,0.29679999999999973,jarvis_3d,jarvis,high,mp-557438,3D
JVASP-29441,Cd1 Hg4 C6 S6 Br4 N6,1.5679,2.7373,1.1693999999999998,jarvis_3d,jarvis,high,mp-557580,3D
JVASP-29446,Tl4 Sb4 O12,2.3795,2.5647,0.18520000000000003,jarvis_3d,jarvis,high,mp-557787,3D
JVASP-29463,Si6 Bi4 O18,3.4874,5.259,1.7716000000000003,jarvis_3d,jarvis,high,mp-558672,3D
JVASP-29467,Bi4 Te4 I4 O12,2.366,3.2075,0.8414999999999999,jarvis_3d,jarvis,high,mp-559332,3D
JVASP-29468,Hg6 As2 S8 Cl2,1.3336,2.6273,1.2937,jarvis_3d,jarvis,high,mp-559355,3D
JVASP-29470,Ag2 Pb2 Br2 O2,0.208,2.0804,1.8724,jarvis_3d,jarvis,high,mp-559470,3D
JVASP-29474,Cd2 Sb2 S4 Br2,1.6293,2.3391,0.7098000000000002,jarvis_3d,jarvis,high,mp-559588,3D
JVASP-29475,Sn2 S2,0.1737,1.1552,0.9815,jarvis_3d,jarvis,high,mp-559676,3D
JVASP-29478,In2 Sb4 S8 Br2,1.5492,2.2197,0.6705000000000001,jarvis_3d,jarvis,high,mp-559864,3D
JVASP-29482,Lu2 S2 Br2,2.8545,3.9102,1.0557000000000003,jarvis_3d,jarvis,high,mp-560054,3D
JVASP-29483,Al4 H12 O12,5.7382,7.5862,1.8479999999999999,jarvis_3d,jarvis,high,mp-560196,3D
JVASP-29486,Ge4 Pb8 S16,1.973,2.7847,0.8116999999999999,jarvis_3d,jarvis,high,mp-560370,3D
JVASP-29488,Au4 Se4 Cl4 O12,1.3454,1.7053,0.3599000000000001,jarvis_3d,jarvis,high,mp-560549,3D
JVASP-29490,Sb8 O12,1.4492,2.6801,1.2308999999999999,jarvis_3d,jarvis,high,mp-560607,3D
JVASP-29494,Zn4 In4 S10,0.4807,0.7087,0.22799999999999998,jarvis_3d,jarvis,high,mp-560806,3D
JVASP-29499,Cd2 Bi2 S4 Br2,1.7816,2.5496,0.7679999999999998,jarvis_3d,jarvis,high,mp-561079,3D
JVASP-29502,Pb2 S2,1.8162,3.0398,1.2236,jarvis_3d,jarvis,high,mp-561320,3D
JVASP-29509,O8 Cr3,0.0012,0.0045,0.0033,jarvis_3d,jarvis,high,mp-561779,3D
JVASP-29511,Cu2 C2 Cl2 O2,2.2956,2.7517,0.45610000000000017,jarvis_3d,jarvis,high,mp-562090,3D
JVASP-29516,Cd2 Te2 Mo2 O12,3.0764,3.7409,0.6644999999999999,jarvis_3d,jarvis,high,mp-565932,3D
JVASP-29519,V4 Pb4 Cl4 O12,2.0003,2.2882,0.2878999999999996,jarvis_3d,jarvis,high,mp-566304,3D
JVASP-29526,Zn2 Te2 Mo2 O12,2.9854,3.7043,0.7189000000000001,jarvis_3d,jarvis,high,mp-567019,3D
JVASP-29527,Pb3 I6,2.2518,3.1415,0.8897000000000004,jarvis_3d,jarvis,high,mp-567178,3D
JVASP-29529,Pb7 I14,2.277,3.168,0.891,jarvis_3d,jarvis,high,mp-567246,3D
JVASP-29530,Cd3 I6,2.1079,3.3196,1.2117,jarvis_3d,jarvis,high,mp-567296,3D
JVASP-29532,Cd4 I8,2.1419,3.3464,1.2045,jarvis_3d,jarvis,high,mp-567336,3D
JVASP-29533,Cd5 I10,2.1893,3.3729,1.1836000000000002,jarvis_3d,jarvis,high,mp-567359,3D
JVASP-29536,Cd6 I12,2.1912,3.3959,1.2047000000000003,jarvis_3d,jarvis,high,mp-567442,3D
JVASP-29539,Pb2 I4,2.2592,3.1402,0.8810000000000002,jarvis_3d,jarvis,high,mp-567503,3D
JVASP-29542,Pb4 I8,2.2491,3.1392,0.8901000000000003,jarvis_3d,jarvis,high,mp-567542,3D
JVASP-29543,Cd2 Sb4 Se6 Br4,1.1071,1.7229,0.6158000000000001,jarvis_3d,jarvis,high,mp-567556,3D
JVASP-29547,Hg1 B2 C8 N8,4.4681,5.8449,1.3768000000000002,jarvis_3d,jarvis,high,mp-567699,3D
JVASP-29550,C6 N8,1.4346,2.7962,1.3615999999999997,jarvis_3d,jarvis,high,mp-567885,3D
JVASP-29556,Ga8 Se8,0.3297,2.1171,1.7874000000000003,jarvis_3d,jarvis,high,mp-568263,3D
JVASP-29558,Bi2 Br6,2.6895,3.4345,0.7450000000000001,jarvis_3d,jarvis,high,mp-568301,3D
JVASP-29560,Hf2 Br2 N2,2.2041,3.2428,1.0387,jarvis_3d,jarvis,high,mp-568346,3D
JVASP-29563,Cu1 B2 C8 N8,3.6648,5.8154,2.1506000000000003,jarvis_3d,jarvis,high,mp-568532,3D
JVASP-29566,Hg8 I16,1.107,2.1011,0.9941000000000002,jarvis_3d,jarvis,high,mp-568742,3D
JVASP-29571,Bi2 Te5 Pb2,0.0319,0.0374,0.005500000000000005,jarvis_3d,jarvis,high,mp-569044,3D
JVASP-29574,Bi2 I6,2.1641,2.7725,0.6084,jarvis_3d,jarvis,high,mp-569157,3D
JVASP-29588,Mg2 Cl4,3.7105,6.0305,2.32,jarvis_3d,jarvis,high,mp-569626,3D
JVASP-29590,B4 N4,3.8221,5.4823,1.6602000000000006,jarvis_3d,jarvis,high,mp-569655,3D
JVASP-29593,Zn2 Se2,1.5392,2.6676,1.1284000000000003,jarvis_3d,jarvis,high,mp-569679,3D
JVASP-29602,Zn1 Br2,3.0939,4.9603,1.8664,jarvis_3d,jarvis,high,mp-569960,3D
JVASP-29604,Cd4 I8,2.175,3.3672,1.1922000000000001,jarvis_3d,jarvis,high,mp-569994,3D
JVASP-29613,Cu6 I6,1.6481,3.0571,1.4090000000000003,jarvis_3d,jarvis,high,mp-570136,3D
JVASP-29621,Ag2 Au2 Cl8,0.0911,1.0399,0.9488000000000001,jarvis_3d,jarvis,high,mp-570340,3D
JVASP-29624,Yb1 I2,3.7025,5.03,1.3275000000000001,jarvis_3d,jarvis,high,mp-570418,3D
JVASP-29625,Cd3 I6,2.2436,3.4145,1.1709,jarvis_3d,jarvis,high,mp-570437,3D
JVASP-29627,Cd5 I10,2.1707,3.3658,1.1951,jarvis_3d,jarvis,high,mp-570472,3D
JVASP-29631,Cd5 I10,2.1904,3.3847,1.1943000000000001,jarvis_3d,jarvis,high,mp-570511,3D
JVASP-29633,Cd5 I10,2.2058,3.388,1.1822,jarvis_3d,jarvis,high,mp-570559,3D
JVASP-29635,C3 N4,1.3018,2.6892,1.3874,jarvis_3d,jarvis,high,mp-570572,3D
JVASP-29639,Cd6 I12,2.172,3.3734,1.2014,jarvis_3d,jarvis,high,mp-570695,3D
JVASP-29640,P4 Se12 Sn4,1.2882,1.7006,0.4123999999999999,jarvis_3d,jarvis,high,mp-5706,3D
JVASP-29642,Mg2 Cl4,4.652,7.1223,2.4703,jarvis_3d,jarvis,high,mp-570782,3D
JVASP-29643,Hg4 C4 N8,1.9942,3.0186,1.0244000000000002,jarvis_3d,jarvis,high,mp-570848,3D
JVASP-29646,Mg1 Cl2,5.0662,7.514,2.4478,jarvis_3d,jarvis,high,mp-570922,3D
JVASP-29647,Bi2 Pb2 Se5,0.1469,0.9736,0.8267,jarvis_3d,jarvis,high,mp-570930,3D
JVASP-29648,Cd6 I12,2.2247,3.4123,1.1876000000000002,jarvis_3d,jarvis,high,mp-570939,3D
JVASP-29649,Zn1 I2,1.6942,2.9933,1.2991000000000001,jarvis_3d,jarvis,high,mp-570964,3D
JVASP-29654,Cd7 I14,2.1881,3.3933,1.2052,jarvis_3d,jarvis,high,mp-571037,3D
JVASP-29655,Ti2 Br6,0.0029,0.0121,0.0092,jarvis_3d,jarvis,high,mp-571065,3D
JVASP-29656,Cd7 I14,2.1957,3.3939,1.1982,jarvis_3d,jarvis,high,mp-571091,3D
JVASP-29661,Cd7 I14,2.2106,3.4244,1.2138,jarvis_3d,jarvis,high,mp-571197,3D
JVASP-29665,Ag2 N6,1.8995,3.0031,1.1036,jarvis_3d,jarvis,high,mp-571297,3D
JVASP-29666,Ti4 Cl12,0.0048,0.6479,0.6431,jarvis_3d,jarvis,high,mp-571424,3D
JVASP-29676,Cd8 I16,2.1845,3.2215,1.037,jarvis_3d,jarvis,high,mp-571568,3D
JVASP-29682,Cd8 I16,2.2088,3.432,1.2231999999999998,jarvis_3d,jarvis,high,mp-571592,3D
JVASP-29700,Te2 Pd2 I4,0.0364,0.2493,0.21289999999999998,jarvis_3d,jarvis,high,mp-573321,3D
JVASP-29712,Re6 Se8 Cl2,1.1052,1.3434,0.23819999999999997,jarvis_3d,jarvis,high,mp-580748,3D
JVASP-29714,Ag4 I4,1.4112,2.7245,1.3133,jarvis_3d,jarvis,high,mp-580941,3D
JVASP-29721,In4 Te10,0.0286,1.1289,1.1003,jarvis_3d,jarvis,high,mp-582549,3D
JVASP-29731,Zn2 B4 H16,4.3711,6.4124,2.0412999999999997,jarvis_3d,jarvis,high,mp-604315,3D
JVASP-29744,Pb4 O6,0.8675,1.4224,0.5549000000000001,jarvis_3d,jarvis,high,mp-608439,3D
JVASP-29750,Hg1 C2 S2 N2,2.0911,3.2303,1.1392000000000002,jarvis_3d,jarvis,high,mp-610992,3D
JVASP-29752,Pb2 Cl2 F2,3.8565,5.0778,1.2212999999999998,jarvis_3d,jarvis,high,mp-613652,3D
JVASP-29759,Pb4 C4 N8,1.7705,2.9065,1.136,jarvis_3d,jarvis,high,mp-619032,3D
JVASP-29769,Ge4 Pb4 S12,1.6579,2.5972,0.9393,jarvis_3d,jarvis,high,mp-624190,3D
JVASP-29780,Cd1 In1 Ga1 S4,0.0198,0.0517,0.0319,jarvis_3d,jarvis,high,mp-624929,3D
JVASP-29781,Al2 H2 O4,5.6147,7.4583,1.8436000000000003,jarvis_3d,jarvis,high,mp-625054,3D
JVASP-29782,Al2 H2 O4,5.6143,7.4577,1.8434,jarvis_3d,jarvis,high,mp-625056,3D
JVASP-29783,Ni1 H2 O2,0.0003,0.0003,0.0,jarvis_3d,jarvis,high,mp-625072,3D
JVASP-29785,Al2 H2 O4,4.7165,6.4954,1.7789000000000001,jarvis_3d,jarvis,high,mp-625075,3D
JVASP-29788,Sc2 H2 O4,4.3975,5.4983,1.1008000000000004,jarvis_3d,jarvis,high,mp-625150,3D
JVASP-29793,Al2 H6 O6,5.2798,7.2915,2.0117000000000003,jarvis_3d,jarvis,high,mp-625316,3D
JVASP-29794,Al2 H6 O6,5.3263,7.3382,2.0119,jarvis_3d,jarvis,high,mp-625318,3D
JVASP-29795,Al2 H6 O6,5.5224,7.4006,1.8781999999999996,jarvis_3d,jarvis,high,mp-625320,3D
JVASP-29798,Al4 H4 O8,5.2062,7.0051,1.7988999999999997,jarvis_3d,jarvis,high,mp-625420,3D
JVASP-29799,Zn1 H2 O2,2.6661,4.4332,1.7671000000000001,jarvis_3d,jarvis,high,mp-625487,3D
JVASP-29800,Zn1 H2 O2,2.6649,4.4168,1.7519000000000005,jarvis_3d,jarvis,high,mp-625488,3D
JVASP-29801,Te2 H4 O8,1.7345,2.4059,0.6714,jarvis_3d,jarvis,high,mp-625513,3D
JVASP-29802,Te2 H4 O8,1.7172,2.4122,0.6949999999999998,jarvis_3d,jarvis,high,mp-625526,3D
JVASP-29803,Cd1 H2 O2,1.7947,3.7766,1.9819000000000002,jarvis_3d,jarvis,high,mp-625548,3D
JVASP-29804,Cd1 H2 O2,1.2317,3.3705,2.1388,jarvis_3d,jarvis,high,mp-625557,3D
JVASP-29805,Cd1 H2 O2,1.795,3.7767,1.9817,jarvis_3d,jarvis,high,mp-625565,3D
JVASP-29806,Te8 H8 O24,2.3002,3.3094,1.0092000000000003,jarvis_3d,jarvis,high,mp-625630,3D
JVASP-29810,Al8 H24 O24,5.24,7.1506,1.9105999999999996,jarvis_3d,jarvis,high,mp-625762,3D
JVASP-29815,Co1 H2 O2,0.0142,0.0207,0.006499999999999999,jarvis_3d,jarvis,high,mp-625953,3D
JVASP-29829,Mg1 H2 O2,4.6372,6.7515,2.1143,jarvis_3d,jarvis,high,mp-626143,3D
JVASP-29833,Al4 H12 O12,5.337,7.3482,2.0112000000000005,jarvis_3d,jarvis,high,mp-626414,3D
JVASP-29834,Al4 H12 O12,5.4077,7.435,2.0272999999999994,jarvis_3d,jarvis,high,mp-626431,3D
JVASP-29835,Al4 H12 O12,5.3368,7.3485,2.0116999999999994,jarvis_3d,jarvis,high,mp-626435,3D
JVASP-29840,Al2 H6 O6,5.4076,7.2989,1.8912999999999993,jarvis_3d,jarvis,high,mp-626497,3D
JVASP-29841,Al2 H6 O6,5.3227,7.336,2.0133,jarvis_3d,jarvis,high,mp-626500,3D
JVASP-29843,Al2 H6 O6,5.4074,7.2989,1.8914999999999997,jarvis_3d,jarvis,high,mp-626504,3D
JVASP-29862,Mo4 H4 O14,2.2005,2.7276,0.5270999999999999,jarvis_3d,jarvis,high,mp-626813,3D
JVASP-29863,Ni1 H2 O2,0.0009,0.0011,0.0002000000000000001,jarvis_3d,jarvis,high,mp-626843,3D
JVASP-29867,Ni1 H2 O2,0.0029,0.0077,0.0048000000000000004,jarvis_3d,jarvis,high,mp-626881,3D
JVASP-29869,Al2 H2 O4,5.6145,7.4582,1.8437000000000001,jarvis_3d,jarvis,high,mp-626902,3D
JVASP-29874,Ag4 Sb4 S8,0.2069,1.2161,1.0091999999999999,jarvis_3d,jarvis,high,mp-627601,3D
JVASP-29879,Sn2 Se2,0.0279,1.2192,1.1913,jarvis_3d,jarvis,high,mp-628773,3D
JVASP-29880,B2 N2,3.6547,5.336,1.6813000000000002,jarvis_3d,jarvis,high,mp-629015,3D
JVASP-29884,Cd2 In2 Ga2 S8,0.5788,1.5386,0.9598,jarvis_3d,jarvis,high,mp-630773,3D
JVASP-29886,Cd1 Cl2,2.8231,5.0628,2.2397,jarvis_3d,jarvis,high,mp-632403,3D
JVASP-29888,Zr2 N2 Cl2,3.018,3.397,0.379,jarvis_3d,jarvis,high,mp-632657,3D
JVASP-29908,Zr1 P2 H2 O6,4.5022,5.0823,0.5800999999999998,jarvis_3d,jarvis,high,mp-643013,3D
JVASP-29913,Ga2 H6 N2 F6,5.4122,7.9462,2.534,jarvis_3d,jarvis,high,mp-643759,3D
JVASP-29915,Cd2 H2 Cl2 O2,2.5035,4.5842,2.0807,jarvis_3d,jarvis,high,mp-644222,3D
JVASP-29945,Zr2 N2 Cl2,1.4183,1.8952,0.4769000000000001,jarvis_3d,jarvis,high,mp-672350,3D
JVASP-29949,Sn3 P4 O14,3.0062,4.251,1.2448000000000001,jarvis_3d,jarvis,high,mp-673118,3D
JVASP-29958,Ba2 Bi6 O11,1.219,2.2604,1.0414,jarvis_3d,jarvis,high,mp-674537,3D
JVASP-29963,In1 P1 F3,0.0969,0.132,0.035100000000000006,jarvis_3d,jarvis,high,mp-675295,3D
JVASP-29965,Nd1 Pb4 F11,4.6225,5.7412,1.1187000000000005,jarvis_3d,jarvis,high,mp-675342,3D
JVASP-29969,Cd2 Bi6 O11,1.0593,2.4092,1.3498999999999999,jarvis_3d,jarvis,high,mp-675654,3D
JVASP-29974,Ag6 S2 I2,0.1029,1.2534,1.1505,jarvis_3d,jarvis,high,mp-676121,3D
JVASP-29983,Ta5 O5 F15,3.1387,4.5395,1.4008000000000003,jarvis_3d,jarvis,high,mp-677065,3D
JVASP-29993,Cd4 I8,2.1959,3.4125,1.2166000000000001,jarvis_3d,jarvis,high,mp-680111,3D
JVASP-30026,V6 Co18,0.0031,0.0046,0.0015,jarvis_3d,jarvis,high,mp-680599,3D
JVASP-30046,Bi2 F6,5.3771,6.6346,1.2574999999999994,jarvis_3d,jarvis,high,mp-685136,3D
JVASP-30047,B1 N1,3.6866,5.243,1.5564000000000004,jarvis_3d,jarvis,high,mp-685145,3D
JVASP-30062,Nb2 Si1 Te4,0.0025,0.0106,0.0081,jarvis_3d,jarvis,high,mp-690578,3D
JVASP-30063,Zn2 H8 Cl4 O12,2.8203,4.1998,1.3794999999999997,jarvis_3d,jarvis,high,mp-690650,3D
JVASP-30064,Ag4 H4 I2 O2 F2,1.0484,2.5669,1.5185,jarvis_3d,jarvis,high,mp-690687,3D
JVASP-30067,Cd1 Cl2,3.3986,5.5168,2.1182,jarvis_3d,jarvis,high,mp-695850,3D
JVASP-30076,Zn2 P4 H8 O8,4.1674,6.1239,1.9565000000000001,jarvis_3d,jarvis,high,mp-697451,3D
JVASP-30085,Mg5 H8 O9,4.0941,6.2251,2.1310000000000002,jarvis_3d,jarvis,high,mp-697921,3D
JVASP-30103,Mo4 O12,1.1579,1.5296,0.37170000000000014,jarvis_3d,jarvis,high,mp-705538,3D
JVASP-30113,Mn2 O4,0.0042,0.0214,0.0172,jarvis_3d,jarvis,high,mp-714873,3D
JVASP-30118,Fe2 O4,0.0013,0.002,0.0007000000000000001,jarvis_3d,jarvis,high,mp-715160,3D
JVASP-30119,Mo2 O6,1.9693,2.5027,0.5333999999999999,jarvis_3d,jarvis,high,mp-715463,3D
JVASP-30120,Mo4 O12,1.15,1.5218,0.37180000000000013,jarvis_3d,jarvis,high,mp-715474,3D
JVASP-30123,Co2 O4,0.0027,0.006,0.0033,jarvis_3d,jarvis,high,mp-715480,3D
JVASP-30139,In4 H20 N8 F8,3.6849,5.7157,2.0308,jarvis_3d,jarvis,high,mp-733932,3D
JVASP-30145,Co2 P2 H12 O12 F2,2.0881,4.2783,2.1902,jarvis_3d,jarvis,high,mp-743618,3D
JVASP-30154,Co2 H12 Se4 O16,0.317,1.726,1.409,jarvis_3d,jarvis,high,mp-744574,3D
JVASP-30162,Ho2 Br2 O2,4.4656,5.743,1.2774,jarvis_3d,jarvis,high,mp-752637,3D
JVASP-30163,Bi2 O2 F2,3.3519,4.8174,1.4655,jarvis_3d,jarvis,high,mp-752949,3D
JVASP-30164,Ti2 O2 F2,0.0009,0.0016,0.0007000000000000001,jarvis_3d,jarvis,high,mp-753059,3D
JVASP-30166,Ho2 I2 O2,3.5203,4.6055,1.0852,jarvis_3d,jarvis,high,mp-753173,3D
JVASP-30175,Y2 I2 O2,3.4989,4.2737,0.7747999999999999,jarvis_3d,jarvis,high,mp-753712,3D
JVASP-30177,Nb4 O4 F12,3.5602,4.16,0.5998000000000001,jarvis_3d,jarvis,high,mp-753800,3D
JVASP-30178,Ti4 O4 F8,3.2468,3.5853,0.33850000000000025,jarvis_3d,jarvis,high,mp-753858,3D
JVASP-30181,Y2 I2 O2,2.2423,3.2241,0.9817999999999998,jarvis_3d,jarvis,high,mp-754038,3D
JVASP-30183,Tm2 Cl2 O2,5.1506,6.2272,1.0766,jarvis_3d,jarvis,high,mp-754113,3D
JVASP-30185,Sm2 I2 O2,3.6611,4.9608,1.2997,jarvis_3d,jarvis,high,mp-754217,3D
JVASP-30186,Ti2 Sn2 O6,1.2745,1.9295,0.655,jarvis_3d,jarvis,high,mp-754246,3D
JVASP-30187,Tm4 H12 O12,4.975,7.6992,2.7242000000000006,jarvis_3d,jarvis,high,mp-754355,3D
JVASP-30189,Tm2 Br2 O2,4.5533,5.7379,1.1845999999999997,jarvis_3d,jarvis,high,mp-754526,3D
JVASP-30191,Mg4 Cl8 O4,2.979,4.0766,1.0976,jarvis_3d,jarvis,high,mp-754645,3D
JVASP-30193,Sm2 I2 O2,2.2148,3.6786,1.4638,jarvis_3d,jarvis,high,mp-754960,3D
JVASP-30194,Tm2 Br2 O2,4.3783,6.2063,1.8279999999999994,jarvis_3d,jarvis,high,mp-754969,3D
JVASP-30198,Cu1 Te1 O4,0.0655,0.074,0.008499999999999994,jarvis_3d,jarvis,high,mp-755455,3D
JVASP-30201,Mg4 Sn2 O8,3.0169,4.6551,1.6381999999999999,jarvis_3d,jarvis,high,mp-755856,3D
JVASP-30202,Lu4 H12 O12,5.0095,7.6984,2.6889000000000003,jarvis_3d,jarvis,high,mp-756273,3D
JVASP-30203,Ag2 Br2 O8,0.4818,1.0427,0.5609,jarvis_3d,jarvis,high,mp-756342,3D
JVASP-30210,Cu2 H8 I4 O16,2.2027,2.8504,0.6476999999999999,jarvis_3d,jarvis,high,mp-756758,3D
JVASP-30212,Sb4 O4 F12,2.5415,4.0945,1.553,jarvis_3d,jarvis,high,mp-757111,3D
JVASP-30214,Ti5 Pb5 O14,0.0114,0.0206,0.0092,jarvis_3d,jarvis,high,mp-757480,3D
JVASP-30217,Ga2 H10 N4 F4,2.9128,4.9186,2.0058,jarvis_3d,jarvis,high,mp-759288,3D
JVASP-30237,Mn1 Co2 O6,0.0022,0.0044,0.0022,jarvis_3d,jarvis,high,mp-763057,3D
JVASP-30242,V2 P2 O10,1.8636,2.1401,0.27649999999999997,jarvis_3d,jarvis,high,mp-763482,3D
JVASP-30256,Cr2 O2 F2,0.0005,0.0023,0.0018,jarvis_3d,jarvis,high,mp-764219,3D
JVASP-30257,V4 O4 F12,2.7343,3.1561,0.42179999999999973,jarvis_3d,jarvis,high,mp-764228,3D
JVASP-30258,V2 O2 F6,2.4718,2.8257,0.3538999999999999,jarvis_3d,jarvis,high,mp-764243,3D
JVASP-30259,Mn2 O2 F2,0.0008,0.0014,0.0006,jarvis_3d,jarvis,high,mp-764258,3D
JVASP-30260,V4 O4 F12,2.5639,2.8996,0.3357000000000001,jarvis_3d,jarvis,high,mp-764283,3D
JVASP-30261,Mn4 O2 F8,0.0496,0.11,0.0604,jarvis_3d,jarvis,high,mp-764303,3D
JVASP-30262,V2 O2 F2,0.01,0.0182,0.0082,jarvis_3d,jarvis,high,mp-764309,3D
JVASP-30264,V4 O8 F4,2.5746,2.8739,0.2992999999999997,jarvis_3d,jarvis,high,mp-764315,3D
JVASP-30266,W2 O4 F4,2.2356,3.3832,1.1476000000000002,jarvis_3d,jarvis,high,mp-764365,3D
JVASP-30271,V2 F8,0.0061,0.0287,0.0226,jarvis_3d,jarvis,high,mp-765237,3D
JVASP-30285,Co2 Ni1 O6,0.0016,0.0048,0.0031999999999999997,jarvis_3d,jarvis,high,mp-765906,3D
JVASP-30312,Y2 Br2 O2,4.4728,5.6668,1.194,jarvis_3d,jarvis,high,mp-768906,3D
JVASP-30314,Si6 Sb4 O18,4.2296,5.7226,1.4930000000000003,jarvis_3d,jarvis,high,mp-769028,3D
JVASP-30317,Ni1 P2 S6,0.0074,0.5457,0.5383,jarvis_3d,jarvis,high,mp-769218,3D
JVASP-30328,Mg4 I8 O24,3.165,4.4655,1.3004999999999995,jarvis_3d,jarvis,high,mp-770718,3D
JVASP-30332,Rb2 Fe4 O7,0.0032,0.006,0.0028,jarvis_3d,jarvis,high,mp-771380,3D
JVASP-30333,Mn5 Co1 O12,0.0009,0.0644,0.0635,jarvis_3d,jarvis,high,mp-771458,3D
JVASP-30337,Co5 Bi1 O12,0.0591,0.0762,0.017100000000000004,jarvis_3d,jarvis,high,mp-771662,3D
JVASP-30347,Sb8 I4 O10,1.8835,2.727,0.8434999999999999,jarvis_3d,jarvis,high,mp-772282,3D
JVASP-30348,Tm2 Cl2 O2,4.5324,6.9861,2.4537000000000004,jarvis_3d,jarvis,high,mp-772295,3D
JVASP-30349,Mn2 O4,0.0013,0.045,0.043699999999999996,jarvis_3d,jarvis,high,mp-772598,3D
JVASP-30353,Mn5 Ni1 O12,0.0131,0.0463,0.0332,jarvis_3d,jarvis,high,mp-773303,3D
JVASP-30372,Cr2 Co4 O12,0.0002,0.0016,0.0014,jarvis_3d,jarvis,high,mp-775117,3D
JVASP-30374,V3 Fe3 Te2 O16,0.0074,0.0111,0.0037,jarvis_3d,jarvis,high,mp-775464,3D
JVASP-30378,Hf2 Sn2 O6,2.4524,3.8457,1.3933,jarvis_3d,jarvis,high,mp-776083,3D