material_id,formula,cif_path,pbe_bandgap,hse_bandgap,gap_type,correction,formation_energy,total_energy,spacegroup
JVASP-75543,Co2SnAs,FAILED_JVASP-75543.cif,0.0,0.0,mBJ,0.0,0.5633,,F-43m
JVASP-90679,OsC,FAILED_JVASP-90679.cif,0.191,0.21,mBJ,0.019,0.73703,,P2_13
JVASP-86189,RbCdAg3C6N6,FAILED_JVASP-86189.cif,2.525,3.224,mBJ,0.699,0.21183,,P312
JVASP-67798,ScBeW2,FAILED_JVASP-67798.cif,0.0,0.0,mBJ,0.0,-0.11766,,F-43m
JVASP-86339,CuF2,FAILED_JVASP-86339.cif,0.0,0.0,mBJ,0.0,-1.62264,,P4_2/mnm
JVASP-3762,K2PdBr4,FAILED_JVASP-3762.cif,1.306,1.221,mBJ,-0.085,-1.2222,,P4/mmm
JVASP-91931,K3NaH4,FAILED_JVASP-91931.cif,2.297,5.032,mBJ,2.735,-0.28341,,Pm-3m
JVASP-22626,TeF4,FAILED_JVASP-22626.cif,4.127,6.466,mBJ,2.339,-2.16468,,P2_12_12_1
JVASP-67250,BeOsPb,FAILED_JVASP-67250.cif,0.0,0.0,mBJ,0.0,0.34652,,I4mm
JVASP-66847,MgTiBe,FAILED_JVASP-66847.cif,0.0,0.0,mBJ,0.0,0.09336,,I4mm
JVASP-85508,Si2H2O5,FAILED_JVASP-85508.cif,4.943,7.135,mBJ,2.192,-2.13528,,P1
JVASP-5281,SiH4,FAILED_JVASP-5281.cif,6.144,7.4,HSE,1.256,-0.00083,,P2_1/c
JVASP-68256,BeCoPt2,FAILED_JVASP-68256.cif,0.0,0.0,mBJ,0.0,-0.15874,,I-4m2
JVASP-85698,CaSiSnO5,FAILED_JVASP-85698.cif,3.473,5.058,mBJ,1.585,-2.68143,,P-1
JVASP-73925,BeCdPt2,FAILED_JVASP-73925.cif,0.0,0.0,mBJ,0.0,-0.27382,,P4mm
JVASP-15985,Rb3As,FAILED_JVASP-15985.cif,0.0,1.075,mBJ,1.075,-0.37983,,P6_3/mmc
JVASP-67722,ZrBeFe4,FAILED_JVASP-67722.cif,0.0,0.0,mBJ,0.0,-0.1066,,F-43m
JVASP-75699,LiTi2As,FAILED_JVASP-75699.cif,0.0,0.0,mBJ,0.0,-0.07977,,F-43m
JVASP-68512,Be2PdPt,FAILED_JVASP-68512.cif,0.0,0.0,mBJ,0.0,-0.65415,,P4/mmm
JVASP-12152,ZrMo2O8,FAILED_JVASP-12152.cif,2.837,3.499,mBJ,0.662,-2.46513,,P-3m1
JVASP-14660,HfFe2,FAILED_JVASP-14660.cif,0.0,0.0,mBJ,0.0,-0.36118,,Fd-3m
JVASP-75802,TeAsIr,FAILED_JVASP-75802.cif,0.0,0.0,mBJ,0.0,-0.03802,,F-43m
JVASP-67681,BeCu2Br,FAILED_JVASP-67681.cif,0.0,0.0,mBJ,0.0,0.28238,,P4mm
JVASP-73288,NaBe2Pt,FAILED_JVASP-73288.cif,0.0,0.0,mBJ,0.0,-0.07677,,Fm-3m
JVASP-67998,BeCrIr2,FAILED_JVASP-67998.cif,0.0,0.0,mBJ,0.0,-0.15784,,I-4m2
JVASP-68683,Na2BeCl,FAILED_JVASP-68683.cif,0.0,0.258,mBJ,0.258,-0.22349,,I-4m2
JVASP-68748,Sc2BeCl,FAILED_JVASP-68748.cif,0.0,0.0,mBJ,0.0,-0.19852,,I-4m2
JVASP-43580,Li3FeF6,FAILED_JVASP-43580.cif,0.0,0.0,mBJ,0.0,-2.62384,,P-31m
JVASP-68203,BeCdW2,FAILED_JVASP-68203.cif,0.0,0.0,mBJ,0.0,0.38008,,I-4m2
JVASP-68448,BeFePb2,FAILED_JVASP-68448.cif,0.0,0.0,mBJ,0.0,0.77787,,I-4m2
JVASP-63394,B2Mo,FAILED_JVASP-63394.cif,0.0,0.0,mBJ,0.0,-0.24573,,P6/mmm
JVASP-21207,Rb,FAILED_JVASP-21207.cif,0.0,12.526,mBJ,12.526,0.00071,,Im-3m
JVASP-3138,Nd2TeS2,FAILED_JVASP-3138.cif,1.589,2.217,mBJ,0.628,-1.99583,,P-3m1
JVASP-14117,NaBH4,FAILED_JVASP-14117.cif,6.429,8.925,mBJ,2.496,-0.34591,,Pnma
JVASP-52349,LaUO4,FAILED_JVASP-52349.cif,0.0,2.251,mBJ,2.251,-3.67108,,P4/mmm
JVASP-541,CoTe2,FAILED_JVASP-541.cif,0.0,0.0,mBJ,0.0,-0.19224,,P-3m1
JVASP-66939,TaBeTe,FAILED_JVASP-66939.cif,0.0,0.0,mBJ,0.0,0.51744,,P3m1
JVASP-74092,BeCr2Cd,FAILED_JVASP-74092.cif,0.0,0.0,mBJ,0.0,0.26725,,P4mm
JVASP-1972,Sr2NCl,FAILED_JVASP-1972.cif,1.921,2.956,mBJ,1.035,-1.63922,,R-3m
JVASP-91553,BaAgSeF,FAILED_JVASP-91553.cif,1.384,2.689,mBJ,1.305,-2.15165,,P4/nmm
JVASP-88462,Na2UO4,FAILED_JVASP-88462.cif,2.124,2.178,mBJ,0.054,-2.75994,,Cmmm
JVASP-91733,Ce2BiN,FAILED_JVASP-91733.cif,0.0,0.0,mBJ,0.0,-1.2226,,P4/nmm
JVASP-67158,BeGaBr,FAILED_JVASP-67158.cif,0.0,0.0,mBJ,0.0,-0.06154,,I4mm
JVASP-15781,P,FAILED_JVASP-15781.cif,0.0,0.0,mBJ,0.0,0.06344,,Imma
JVASP-72663,Be2CoSi,FAILED_JVASP-72663.cif,0.0,0.0,mBJ,0.0,-0.23001,,I4/mmm
JVASP-75765,AsOsAu,FAILED_JVASP-75765.cif,0.0,0.0,mBJ,0.0,1.28815,,F-43m
JVASP-67763,SrBeBi,FAILED_JVASP-67763.cif,0.0,0.0,mBJ,0.0,0.05615,,I4mm
JVASP-68148,BeFeNi2,FAILED_JVASP-68148.cif,0.0,0.0,mBJ,0.0,-0.11894,,I-4m2
JVASP-67635,Be2SnMo,FAILED_JVASP-67635.cif,0.0,0.0,mBJ,0.0,0.48274,,P4mm
JVASP-75583,Zn2ReAs,FAILED_JVASP-75583.cif,0.0,0.0,mBJ,0.0,0.5429,,F-43m
JVASP-15310,SmSi2Ru2,FAILED_JVASP-15310.cif,0.0,0.0,mBJ,0.0,-0.83807,,I4/mmm
JVASP-66848,BeNiCl,FAILED_JVASP-66848.cif,0.0,0.0,mBJ,0.0,0.13313,,I4mm
JVASP-67937,HfBeNb2,FAILED_JVASP-67937.cif,0.0,0.0,mBJ,0.0,0.14782,,I-4m2
JVASP-85765,S,FAILED_JVASP-85765.cif,0.461,0.807,mBJ,0.346,0.18204,,P3
JVASP-68881,BeCdTe2,FAILED_JVASP-68881.cif,0.0,0.0,mBJ,0.0,0.33081,,I-4m2
JVASP-3768,RbIO3,FAILED_JVASP-3768.cif,2.631,4.411,mBJ,1.78,-1.07456,,R3m
JVASP-75613,AsPtCl,FAILED_JVASP-75613.cif,0.0,0.0,mBJ,0.0,0.88252,,F-43m
JVASP-86422,CoAsS,FAILED_JVASP-86422.cif,0.0,0.0,mBJ,0.0,-0.29519,,P2_1/c
JVASP-68395,Sr2BeCo,FAILED_JVASP-68395.cif,0.0,0.0,mBJ,0.0,0.33874,,P4mm
JVASP-90617,TaCo3,FAILED_JVASP-90617.cif,0.0,0.0,mBJ,0.0,-0.26584,,P6_3/mmc
JVASP-20090,SiIr,FAILED_JVASP-20090.cif,0.0,0.0,mBJ,0.0,-0.605,,Pnma
JVASP-90847,SrZnAsF,FAILED_JVASP-90847.cif,0.709,1.65,mBJ,0.941,-2.01391,,P4/nmm
JVASP-18466,Ag3O,FAILED_JVASP-18466.cif,0.0,0.106,mBJ,0.106,-0.13304,,P-31m
JVASP-68002,K2BeFe,FAILED_JVASP-68002.cif,0.0,0.0,mBJ,0.0,1.12695,,F-43m
JVASP-75732,CrSi2As,FAILED_JVASP-75732.cif,0.0,0.0,mBJ,0.0,0.61842,,F-43m
JVASP-73927,BeNb2In,FAILED_JVASP-73927.cif,0.0,0.0,mBJ,0.0,0.22025,,P4mm
JVASP-68514,TiBe2Te,FAILED_JVASP-68514.cif,0.0,0.0,mBJ,0.0,0.21163,,P4/mmm
JVASP-68449,TaBeCl,FAILED_JVASP-68449.cif,0.0,0.0,mBJ,0.0,-0.01957,,P3m1
JVASP-67561,LiBeSi2,FAILED_JVASP-67561.cif,0.0,0.0,mBJ,0.0,0.24488,,P4mm
JVASP-67251,HfBeSi,FAILED_JVASP-67251.cif,0.0,0.0,mBJ,0.0,-0.02524,,I4mm
JVASP-67682,NaScBe,FAILED_JVASP-67682.cif,0.0,0.0,mBJ,0.0,0.32574,,I4mm
JVASP-74023,BeGaW2,FAILED_JVASP-74023.cif,0.0,0.0,mBJ,0.0,-0.07578,,P4mm
JVASP-75585,HfReAs,FAILED_JVASP-75585.cif,0.0,0.0,mBJ,0.0,0.47696,,F-43m
JVASP-22712,Li2VF6,FAILED_JVASP-22712.cif,3.636,3.616,mBJ,-0.02,-3.04943,,P-31m
JVASP-50351,Na3AsO4,FAILED_JVASP-50351.cif,3.435,6.206,mBJ,2.771,-1.82123,,Pmn2_1
JVASP-75733,NaV2As,FAILED_JVASP-75733.cif,0.0,0.0,mBJ,0.0,0.40045,,F-43m
JVASP-68685,LiBe2Sb,FAILED_JVASP-68685.cif,0.0,0.0,mBJ,0.0,0.30856,,P4/mmm
JVASP-88791,BaCuTeF,FAILED_JVASP-88791.cif,1.064,1.737,mBJ,0.673,-2.02624,,P4/nmm
JVASP-67161,BeNbTe,FAILED_JVASP-67161.cif,0.0,0.0,mBJ,0.0,0.4333,,P3m1
JVASP-67883,BeP2Ir,FAILED_JVASP-67883.cif,0.0,0.0,mBJ,0.0,0.31259,,I-4m2
JVASP-3498,CdIn2Se4,FAILED_JVASP-3498.cif,0.862,2.161,mBJ,1.299,-0.56126,,I-4
JVASP-90575,MgTi,FAILED_JVASP-90575.cif,0.0,0.0,mBJ,0.0,0.14953,,C2/m
JVASP-66942,BeNbPt,FAILED_JVASP-66942.cif,0.0,0.0,mBJ,0.0,-0.49537,,I4mm
JVASP-12025,CoI2,FAILED_JVASP-12025.cif,0.0,0.028,mBJ,0.028,0.01733,,P-3m1
JVASP-15080,ScSi2,FAILED_JVASP-15080.cif,0.0,0.0,mBJ,0.0,-0.31425,,P6/mmm
JVASP-3591,K2SeBr6,FAILED_JVASP-3591.cif,1.528,2.161,mBJ,0.633,-0.95156,,Fm-3m
JVASP-67311,HfBe2Fe,FAILED_JVASP-67311.cif,0.0,0.0,mBJ,0.0,0.04121,,P4/mmm
JVASP-67800,BeGa4Tc,FAILED_JVASP-67800.cif,0.0,0.004,mBJ,0.004,0.4546,,F-43m
JVASP-66852,CaBeGe,FAILED_JVASP-66852.cif,0.0,0.0,mBJ,0.0,0.01018,,I4mm
JVASP-67162,SrBeCl,FAILED_JVASP-67162.cif,0.0,0.0,mBJ,0.0,-0.42888,,I4mm
JVASP-73310,TiBe2Bi,FAILED_JVASP-73310.cif,0.0,0.0,mBJ,0.0,0.46283,,I4/mmm
JVASP-67636,BeAgW,FAILED_JVASP-67636.cif,0.0,0.0,mBJ,0.0,0.13168,,I4mm
JVASP-91932,TbH3,FAILED_JVASP-91932.cif,0.0,1.002,mBJ,1.002,-0.65614,,P6_3/mmc
JVASP-3687,MgH2,FAILED_JVASP-3687.cif,4.085,5.806,mBJ,1.721,-0.29675,,P4_2/mnm
JVASP-91513,MgSiH2O4,FAILED_JVASP-91513.cif,5.42,6.854,mBJ,1.434,-2.1466,,P2/m
JVASP-85352,NaMoF6,FAILED_JVASP-85352.cif,0.0,4.025,mBJ,4.025,-2.72226,,Fm-3m
JVASP-1729,CdCN2,FAILED_JVASP-1729.cif,2.341,3.928,mBJ,1.587,0.03745,,R-3m
JVASP-20064,LaSb,FAILED_JVASP-20064.cif,0.0,0.059,mBJ,0.059,-1.32737,,Fm-3m
JVASP-85519,LaHO2,FAILED_JVASP-85519.cif,4.082,4.331,mBJ,0.249,-2.74995,,P2_1/m
JVASP-87091,K3NaSe2O8,FAILED_JVASP-87091.cif,3.802,5.525,mBJ,1.723,-1.50148,,P-3m1
JVASP-67801,BeRe2Mo,FAILED_JVASP-67801.cif,0.0,0.0,mBJ,0.0,0.0902,,P4mm
JVASP-68886,CaBePb2,FAILED_JVASP-68886.cif,0.0,0.0,mBJ,0.0,0.11911,,I-4m2
JVASP-67563,BeSiTe,FAILED_JVASP-67563.cif,0.0,0.0,mBJ,0.0,0.43716,,I4mm
JVASP-68515,ScBeSe2,FAILED_JVASP-68515.cif,0.0,0.0,mBJ,0.0,-0.59451,,I-4m2
JVASP-3342,Ga2HgTe4,FAILED_JVASP-3342.cif,0.596,1.514,mBJ,0.918,-0.22848,,I-4
JVASP-68817,HfBeSe2,FAILED_JVASP-68817.cif,0.0,0.0,mBJ,0.0,-0.16917,,I-4m2
JVASP-85914,Ba2SnO4,FAILED_JVASP-85914.cif,2.647,3.768,mBJ,1.121,-2.55837,,I4/mmm
JVASP-67683,NaBeBi,FAILED_JVASP-67683.cif,0.0,0.0,mBJ,0.0,0.33071,,I4mm
JVASP-18581,ErAg2,FAILED_JVASP-18581.cif,0.0,0.0,mBJ,0.0,-0.3734,,I4/mmm
JVASP-68066,LaBeP,FAILED_JVASP-68066.cif,0.0,0.0,mBJ,0.0,-1.02623,,P-6m2
JVASP-43987,Mn3OF5,FAILED_JVASP-43987.cif,0.0,0.0,mBJ,0.0,-2.29626,,Pmn2_1
JVASP-68452,BeCu2Br,FAILED_JVASP-68452.cif,0.0,0.0,mBJ,0.0,0.51804,,I-4m2
JVASP-75885,ZnRe2As,FAILED_JVASP-75885.cif,0.0,0.0,mBJ,0.0,0.4745,,F-43m
JVASP-67513,BeCdPb,FAILED_JVASP-67513.cif,0.0,0.0,mBJ,0.0,0.44734,,P3m1
JVASP-67888,BeV2Hg,FAILED_JVASP-67888.cif,0.0,0.0,mBJ,0.0,0.47966,,I-4m2
JVASP-67022,MgBeGa,FAILED_JVASP-67022.cif,0.0,0.0,mBJ,0.0,0.24711,,P3m1
JVASP-42764,Mn3OF5,FAILED_JVASP-42764.cif,0.0,0.0,mBJ,0.0,-2.29647,,P2/m
JVASP-22676,HCl,FAILED_JVASP-22676.cif,5.815,7.576,mBJ,1.761,-0.45408,,Cmc2_1
JVASP-67163,Be2CrBr,FAILED_JVASP-67163.cif,0.0,0.0,mBJ,0.0,0.5775,,P4mm
JVASP-74031,BeCdCu2,FAILED_JVASP-74031.cif,0.0,0.0,mBJ,0.0,0.09498,,P4mm
JVASP-91554,TmAgS2,FAILED_JVASP-91554.cif,0.932,2.007,mBJ,1.075,-1.42296,,I4_1md
JVASP-3771,SnI2,FAILED_JVASP-3771.cif,1.785,2.216,mBJ,0.431,-0.52917,,C2/m
JVASP-48431,NaNi2O3,FAILED_JVASP-48431.cif,0.0,0.0,mBJ,0.0,-1.10257,,P-3m1
JVASP-90803,MgSiSb2,FAILED_JVASP-90803.cif,0.836,1.409,mBJ,0.573,-0.06373,,I-42d
JVASP-68265,MnBeRe2,FAILED_JVASP-68265.cif,0.0,0.0,mBJ,0.0,0.1103,,I-4m2
JVASP-86547,CF2,FAILED_JVASP-86547.cif,4.855,6.458,mBJ,1.603,-1.27297,,P-1
JVASP-85699,Li2H2Pt,FAILED_JVASP-85699.cif,0.0,0.0,mBJ,0.0,-0.53394,,Immm
JVASP-67600,NaBeRu2,FAILED_JVASP-67600.cif,0.0,0.0,mBJ,0.0,0.49101,,F-43m
JVASP-67940,Y2BeBr,FAILED_JVASP-67940.cif,0.0,0.0,mBJ,0.0,-0.18217,,P4mm
JVASP-3501,Na2PtO2,FAILED_JVASP-3501.cif,1.652,2.286,mBJ,0.634,-1.26195,,Immm
JVASP-73358,Be2TcP,FAILED_JVASP-73358.cif,0.0,0.0,mBJ,0.0,-0.22209,,P4mm
JVASP-67418,Be2VRu,FAILED_JVASP-67418.cif,0.0,0.0,mBJ,0.0,-0.09576,,P4mm
JVASP-1975,Ca2PI,FAILED_JVASP-1975.cif,1.602,2.149,mBJ,0.547,-1.55531,,R-3m
JVASP-67725,BePBr,FAILED_JVASP-67725.cif,0.0,0.0,mBJ,0.0,0.17517,,I4mm
JVASP-68516,Na2BeBr,FAILED_JVASP-68516.cif,0.0,0.51,mBJ,0.51,-0.12113,,I-4m2
JVASP-68887,Sr2CaBe,FAILED_JVASP-68887.cif,0.0,0.0,mBJ,0.0,0.21428,,P4mm
JVASP-72739,Be2SiTc,FAILED_JVASP-72739.cif,0.0,0.0,mBJ,0.0,-0.11581,,I4/mmm
JVASP-67684,NaBeBr,FAILED_JVASP-67684.cif,0.666,1.185,mBJ,0.519,0.02602,,I4mm
JVASP-86772,Tl2CdGeTe4,FAILED_JVASP-86772.cif,0.269,0.761,mBJ,0.492,-0.26577,,I-42m
JVASP-67639,BeBiPb,FAILED_JVASP-67639.cif,0.0,0.0,mBJ,0.0,0.45994,,I4mm
JVASP-68818,ScBeTe2,FAILED_JVASP-68818.cif,0.0,0.0,mBJ,0.0,-0.17072,,I-4m2
JVASP-53313,GaFe3,FAILED_JVASP-53313.cif,0.0,0.0,mBJ,0.0,-0.07854,,Fm-3m
JVASP-48484,Mn2O3F,FAILED_JVASP-48484.cif,0.0,0.0,mBJ,0.0,-1.9237,,C2/m
JVASP-75843,Sc2MnAs,FAILED_JVASP-75843.cif,0.0,0.032,mBJ,0.032,-0.19821,,F-43m
JVASP-86424,NaNbO2,FAILED_JVASP-86424.cif,1.503,1.68,mBJ,0.177,-2.40533,,P6_3/mmc
JVASP-74033,Ti2BeBi,FAILED_JVASP-74033.cif,0.0,0.0,mBJ,0.0,0.12436,,P4mm
JVASP-88089,Pr3UCl3O6,FAILED_JVASP-88089.cif,1.6,1.685,mBJ,0.085,-3.27274,,P6_3/m
JVASP-68689,BeBiSe,FAILED_JVASP-68689.cif,0.0,0.0,mBJ,0.0,-0.15349,,P3m1
JVASP-75663,Nb2VAs,FAILED_JVASP-75663.cif,0.0,0.0,mBJ,0.0,0.01256,,F-43m
JVASP-68888,BeNbV,FAILED_JVASP-68888.cif,0.0,0.0,mBJ,0.0,0.373,,P3m1
JVASP-68454,Li2BeCl,FAILED_JVASP-68454.cif,0.0,0.06,mBJ,0.06,-0.34266,,I-4m2
JVASP-1333,CaS,FAILED_JVASP-1333.cif,2.347,3.289,mBJ,0.942,-2.38214,,Fm-3m
JVASP-68575,HfBeSb2,FAILED_JVASP-68575.cif,0.0,0.0,mBJ,0.0,0.2112,,I-4m2
JVASP-68754,Sc2BeGa,FAILED_JVASP-68754.cif,0.0,0.0,mBJ,0.0,-0.10939,,I-4m2
JVASP-87093,Ca2Pt3O8,FAILED_JVASP-87093.cif,1.082,1.328,mBJ,0.246,-1.55031,,R-3m
JVASP-50775,Hf2N2O,FAILED_JVASP-50775.cif,2.061,3.115,mBJ,1.054,-2.37309,,Cm
JVASP-68068,BeNi2Ir,FAILED_JVASP-68068.cif,0.0,0.0,mBJ,0.0,-0.14039,,I-4m2
JVASP-62724,BS2N2OF7,FAILED_JVASP-62724.cif,5.318,7.494,mBJ,2.176,-1.38115,,P2_1/m
JVASP-67601,MgBeGe,FAILED_JVASP-67601.cif,0.0,0.0,mBJ,0.0,0.28647,,I4mm
JVASP-68630,BeSn2P,FAILED_JVASP-68630.cif,0.0,0.0,mBJ,0.0,0.5274,,I-4m2
JVASP-75480,VAsPt2,FAILED_JVASP-75480.cif,0.0,0.0,mBJ,0.0,-0.12872,,F-43m
JVASP-22713,K4I2O,FAILED_JVASP-22713.cif,1.386,2.774,mBJ,1.388,-1.48248,,I4/mmm
JVASP-86714,KNaB2H8,FAILED_JVASP-86714.cif,6.448,9.029,mBJ,2.581,-0.39508,,R3
JVASP-69722,Be2FeTc,FAILED_JVASP-69722.cif,0.0,0.0,mBJ,0.0,-0.09278,,F-43m
JVASP-75706,NbAsIr2,FAILED_JVASP-75706.cif,0.0,0.0,mBJ,0.0,-0.00692,,F-43m
JVASP-86087,Ca3N2,FAILED_JVASP-86087.cif,1.733,3.019,mBJ,1.286,-0.99465,,C2/m
JVASP-67420,HfBeBi,FAILED_JVASP-67420.cif,0.0,0.0,mBJ,0.0,0.28229,,I4mm
JVASP-91597,UInPt2,FAILED_JVASP-91597.cif,0.0,0.0,mBJ,0.0,-0.49116,,P6_3/mmc
JVASP-66854,BeInBr,FAILED_JVASP-66854.cif,0.0,0.0,mBJ,0.0,0.24276,,I4mm
JVASP-67943,BeCrCu2,FAILED_JVASP-67943.cif,0.0,0.0,mBJ,0.0,0.07466,,P4mm
JVASP-73944,BeV2Pt,FAILED_JVASP-73944.cif,0.0,0.0,mBJ,0.0,-0.27839,,P4mm
JVASP-68271,BeCuPd2,FAILED_JVASP-68271.cif,0.0,0.0,mBJ,0.0,-0.16559,,I-4m2
JVASP-75815,MnNb2As,FAILED_JVASP-75815.cif,0.0,0.0,mBJ,0.0,0.14409,,F-43m
JVASP-16093,SmSiRu,FAILED_JVASP-16093.cif,0.0,0.0,mBJ,0.0,-0.74357,,P4/nmm
JVASP-85353,EuIO,FAILED_JVASP-85353.cif,3.645,4.571,mBJ,0.926,-2.89458,,P4/nmm
JVASP-86892,AuBr,FAILED_JVASP-86892.cif,1.871,2.687,mBJ,0.816,-0.06958,,I4_1/amd
JVASP-3774,K2MgCl4,FAILED_JVASP-3774.cif,5.104,7.562,mBJ,2.458,-2.05025,,I4/mmm
JVASP-75590,As4RuBr,FAILED_JVASP-75590.cif,0.005,0.0,mBJ,-0.005,0.83464,,F-43m
JVASP-67517,NaBe2Bi,FAILED_JVASP-67517.cif,0.0,0.0,mBJ,0.0,0.63859,,P4/mmm
JVASP-69536,Be2NbMo,FAILED_JVASP-69536.cif,0.0,0.0,mBJ,0.0,0.10168,,I-4m2
JVASP-15486,AlVCo2,FAILED_JVASP-15486.cif,0.0,0.0,mBJ,0.0,-0.42291,,Fm-3m
JVASP-91933,Si,FAILED_JVASP-91933.cif,0.335,0.824,mBJ,0.489,0.08587,,C2/m
JVASP-75844,TcAsAu,FAILED_JVASP-75844.cif,0.0,0.0,mBJ,0.0,0.93609,,F-43m
JVASP-15599,NdCo2B2,FAILED_JVASP-15599.cif,0.0,0.0,mBJ,0.0,-0.52315,,I4/mmm
JVASP-68518,Be2InTe,FAILED_JVASP-68518.cif,0.0,0.0,mBJ,0.0,0.39184,,P4mm
JVASP-75523,LiCdAs,FAILED_JVASP-75523.cif,0.0,0.377,mBJ,0.377,-0.35073,,F-43m
JVASP-22677,CaO2,FAILED_JVASP-22677.cif,2.982,4.221,mBJ,1.239,-2.14444,,I4/mmm
JVASP-14634,Nb5Sb4,FAILED_JVASP-14634.cif,0.0,0.0,mBJ,0.0,-0.2702,,I4/m
JVASP-67803,HfBeGa,FAILED_JVASP-67803.cif,0.0,0.0,mBJ,0.0,-0.06111,,I4mm
JVASP-86824,SbI3,FAILED_JVASP-86824.cif,2.003,2.654,mBJ,0.651,-0.3086,,P2_1/c
JVASP-91985,Bi2CO5,FAILED_JVASP-91985.cif,2.353,3.774,mBJ,1.421,-1.46163,,C2
JVASP-68337,NaBeTl2,FAILED_JVASP-68337.cif,0.0,0.0,mBJ,0.0,0.3827,,I-4m2
JVASP-75889,AsRu2Cl,FAILED_JVASP-75889.cif,0.0,0.0,mBJ,0.0,0.76331,,F-43m
JVASP-74034,BeV2Pb,FAILED_JVASP-74034.cif,0.0,0.0,mBJ,0.0,0.29906,,P4mm
JVASP-67166,LiBeIn,FAILED_JVASP-67166.cif,0.0,0.0,mBJ,0.0,0.15078,,I4mm
JVASP-85840,CuF2,FAILED_JVASP-85840.cif,0.0,0.0,mBJ,0.0,-1.62135,,P4_2/mnm
JVASP-15647,ErSnPd2,FAILED_JVASP-15647.cif,0.0,0.0,mBJ,0.0,-0.88351,,Fm-3m
JVASP-75707,Fe2AsSe,FAILED_JVASP-75707.cif,0.0,0.0,mBJ,0.0,0.60794,,F-43m
JVASP-76275,Y3H2,FAILED_JVASP-76275.cif,0.0,0.0,mBJ,0.0,-0.44269,,P6_3/mmc
JVASP-68210,BeNiRu2,FAILED_JVASP-68210.cif,0.0,0.0,mBJ,0.0,-0.0096,,I-4m2
JVASP-69723,MnBe2In,FAILED_JVASP-69723.cif,0.0,0.097,mBJ,0.097,0.33543,,I-4m2
JVASP-75622,ReAsW2,FAILED_JVASP-75622.cif,0.0,0.0,mBJ,0.0,0.23592,,F-43m
JVASP-67428,CaBeIn,FAILED_JVASP-67428.cif,0.0,0.0,mBJ,0.0,0.08568,,I4mm
JVASP-68458,MnBePb2,FAILED_JVASP-68458.cif,0.0,0.0,mBJ,0.0,0.42415,,P4mm
JVASP-67644,Be2BiIr,FAILED_JVASP-67644.cif,0.0,0.0,mBJ,0.0,0.48264,,P4/mmm
JVASP-67604,BeNbRu2,FAILED_JVASP-67604.cif,0.0,0.0,mBJ,0.0,-0.07824,,P4mm
JVASP-68820,Hf2BeBi,FAILED_JVASP-68820.cif,0.0,0.0,mBJ,0.0,0.1759,,I-4m2
JVASP-67727,LiBeBr4,FAILED_JVASP-67727.cif,0.0,0.0,mBJ,0.0,0.4598,,F-43m
JVASP-67844,BeCo4Cu,FAILED_JVASP-67844.cif,0.0,0.0,mBJ,0.0,0.30987,,F-43m
JVASP-49746,Zn2As2O7,FAILED_JVASP-49746.cif,2.025,3.661,mBJ,1.636,-1.36703,,C2/m
JVASP-3348,BaAgTeF,FAILED_JVASP-3348.cif,1.641,2.717,mBJ,1.076,-2.06644,,P4/nmm
JVASP-68522,KBeTe2,FAILED_JVASP-68522.cif,0.0,0.0,mBJ,0.0,0.22342,,I-4m2
JVASP-50093,TiNbO4,FAILED_JVASP-50093.cif,0.0,2.792,mBJ,2.792,-2.89049,,I-4m2
JVASP-3594,SrIF,FAILED_JVASP-3594.cif,4.534,5.37,HSE,0.836,-3.02678,,P4/nmm
JVASP-15058,ScPd,FAILED_JVASP-15058.cif,0.0,0.0,mBJ,0.0,-0.93785,,Pm-3m
JVASP-3780,LuSBr,FAILED_JVASP-3780.cif,2.856,3.906,mBJ,1.05,-2.10731,,Pmmn
JVASP-75848,ReAsPt2,FAILED_JVASP-75848.cif,0.0,0.0,mBJ,0.0,0.27405,,F-43m
JVASP-69641,TaBe2Ni,FAILED_JVASP-69641.cif,0.0,0.283,mBJ,0.283,-0.07723,,F-43m
JVASP-72790,Be2HgRu,FAILED_JVASP-72790.cif,0.0,0.0,mBJ,0.0,0.30242,,I-4m2
JVASP-68585,MgBe2Tc,FAILED_JVASP-68585.cif,0.0,0.0,mBJ,0.0,0.04849,,P4/mmm
JVASP-18838,InPd3,FAILED_JVASP-18838.cif,0.0,0.0,mBJ,0.0,-0.41255,,Pm-3m
JVASP-69469,Be2TcIr,FAILED_JVASP-69469.cif,0.0,0.0,mBJ,0.0,-0.13747,,I-4m2
JVASP-68759,Be2CuIr,FAILED_JVASP-68759.cif,0.0,0.0,mBJ,0.0,-0.39486,,P4/mmm
JVASP-67806,BeSbCl,FAILED_JVASP-67806.cif,0.0,0.0,mBJ,0.0,0.08806,,I4mm
JVASP-91736,InSe2N,FAILED_JVASP-91736.cif,0.0,0.0,mBJ,0.0,1.07429,,I4/mcm
JVASP-90621,UFeC2,FAILED_JVASP-90621.cif,0.0,0.0,mBJ,0.0,-0.23239,,P4/nmm
JVASP-14923,KSnS2,FAILED_JVASP-14923.cif,0.0,1.634,mBJ,1.634,-0.83258,,R3m
JVASP-68408,BeNbTe2,FAILED_JVASP-68408.cif,0.0,0.0,mBJ,0.0,0.61448,,I-4m2
JVASP-20091,ScIr,FAILED_JVASP-20091.cif,0.0,0.0,mBJ,0.0,-1.13736,,Pm-3m
JVASP-75778,TiAsP2,FAILED_JVASP-75778.cif,0.0,0.0,mBJ,0.0,0.23755,,F-43m
JVASP-16222,NdSi,FAILED_JVASP-16222.cif,0.0,0.0,mBJ,0.0,-0.74579,,Pnma
JVASP-75562,TaGeAs,FAILED_JVASP-75562.cif,0.0,0.0,mBJ,0.0,0.70976,,F-43m
JVASP-19870,CaB6,FAILED_JVASP-19870.cif,0.045,0.059,mBJ,0.014,-0.44978,,Pm-3m
JVASP-52354,BaCaI4,FAILED_JVASP-52354.cif,3.595,4.223,mBJ,0.628,-1.71222,,Cmc2_1
JVASP-75820,AsIrBr,FAILED_JVASP-75820.cif,0.0,0.0,mBJ,0.0,1.44311,,F-43m
JVASP-69724,Be2CoSi,FAILED_JVASP-69724.cif,0.0,0.0,mBJ,0.0,-0.2518,,I-4m2
JVASP-68013,BePdPt2,FAILED_JVASP-68013.cif,0.0,0.0,mBJ,0.0,-0.17168,,I-4m2
JVASP-67728,BeBiSe2,FAILED_JVASP-67728.cif,0.0,0.0,mBJ,0.0,-0.1652,,P4mm
JVASP-73956,BeV2Ir,FAILED_JVASP-73956.cif,0.0,0.0,mBJ,0.0,-0.29674,,P4mm
JVASP-87166,Sr2CaWO6,FAILED_JVASP-87166.cif,2.786,3.883,mBJ,1.097,-3.0362,,Fm-3m
JVASP-68461,BeTl2Fe,FAILED_JVASP-68461.cif,0.0,0.0,mBJ,0.0,0.4335,,P4mm
JVASP-43812,LiMnCo3O8,FAILED_JVASP-43812.cif,0.0,0.0,mBJ,0.0,-1.40133,,C2/m
JVASP-1909,NaInSe2,FAILED_JVASP-1909.cif,1.001,2.014,mBJ,1.013,-0.84569,,R-3m
JVASP-3906,CdBr2,FAILED_JVASP-3906.cif,2.742,4.445,mBJ,1.703,-0.88513,,P6_3mc
JVASP-86715,Ca4TiN4,FAILED_JVASP-86715.cif,1.703,2.899,mBJ,1.196,-1.38518,,P-1
JVASP-90850,SrAgTeF,FAILED_JVASP-90850.cif,1.455,2.607,mBJ,1.152,-2.05225,,P4/nmm
JVASP-91556,ThSe3,FAILED_JVASP-91556.cif,1.145,1.911,mBJ,0.766,-1.40889,,P2_1/m
JVASP-68900,SrZrBe2,FAILED_JVASP-68900.cif,0.0,0.0,mBJ,0.0,0.19694,,P4/mmm
JVASP-69869,Be2PtRh,FAILED_JVASP-69869.cif,0.0,0.0,mBJ,0.0,-0.53371,,P4mm
JVASP-69803,TaBe2V,FAILED_JVASP-69803.cif,0.0,0.0,mBJ,0.0,0.10199,,I-4m2
JVASP-74044,MgBeRh2,FAILED_JVASP-74044.cif,0.0,0.0,mBJ,0.0,-0.29301,,P4mm
JVASP-12172,CrP2S7,FAILED_JVASP-12172.cif,0.0,0.002,mBJ,0.002,-0.29377,,C2
JVASP-18405,YH2,FAILED_JVASP-18405.cif,0.0,0.366,mBJ,0.366,-0.77687,,Fm-3m
JVASP-68212,BeGa2Fe,FAILED_JVASP-68212.cif,0.0,0.0,mBJ,0.0,0.01238,,I-4m2
JVASP-68586,TiBeHg,FAILED_JVASP-68586.cif,0.0,0.0,mBJ,0.0,0.44177,,P3m1
JVASP-75595,AsPAu,FAILED_JVASP-75595.cif,0.0,0.0,mBJ,0.0,0.35888,,F-43m
JVASP-67320,Be2FeSb,FAILED_JVASP-67320.cif,0.0,0.0,mBJ,0.0,0.34127,,P4mm
JVASP-75821,TcAsW2,FAILED_JVASP-75821.cif,0.0,0.0,mBJ,0.0,0.11567,,F-43m
JVASP-22679,Rb2H6Pt,FAILED_JVASP-22679.cif,3.889,5.277,mBJ,1.388,-0.40408,,Fm-3m
JVASP-69726,SrBeSb,FAILED_JVASP-69726.cif,0.0,0.67,mBJ,0.67,-0.53698,,P-6m2
JVASP-75850,ZrCr2As,FAILED_JVASP-75850.cif,0.0,0.0,mBJ,0.0,0.22291,,F-43m
JVASP-67772,BeCdRu2,FAILED_JVASP-67772.cif,0.0,0.0,mBJ,0.0,0.06402,,P4mm
JVASP-67894,BeV2Cr,FAILED_JVASP-67894.cif,0.0,0.0,mBJ,0.0,0.09019,,I-4m2
JVASP-91697,BaZnAsF,FAILED_JVASP-91697.cif,0.225,1.203,mBJ,0.978,-1.99236,,P4/nmm