material_id,formula,cif_path,pbe_bandgap,hse_bandgap,gap_type,correction,formation_energy,total_energy,spacegroup
JVASP-25319,Ti,FAILED_JVASP-25319.cif,0.0,0.0,mBJ,0.0,0.06514,,Fm-3m
JVASP-35387,Tm2Cr2C3,FAILED_JVASP-35387.cif,0.0,0.0,mBJ,0.0,-0.42976,,C2/m
JVASP-40783,AlVPt,FAILED_JVASP-40783.cif,0.0,0.0,mBJ,0.0,-0.18335,,F-43m
JVASP-39310,HgS,FAILED_JVASP-39310.cif,0.0,0.803,mBJ,0.803,0.02002,,P6_3mc
JVASP-39100,SiGeN2O,FAILED_JVASP-39100.cif,3.77,5.375,mBJ,1.605,-1.14242,,P2_1
JVASP-4564,AlPO4,FAILED_JVASP-4564.cif,5.891,8.876,mBJ,2.985,-2.75852,,I-4
JVASP-40823,VSiPt,FAILED_JVASP-40823.cif,0.0,0.673,mBJ,0.673,-0.40691,,F-43m
JVASP-40239,Al2RuPt,FAILED_JVASP-40239.cif,0.0,0.0,mBJ,0.0,-0.88461,,Fm-3m
JVASP-39947,AlZnRh2,FAILED_JVASP-39947.cif,0.0,0.0,mBJ,0.0,-0.77399,,Fm-3m
JVASP-30668,YCrF5,FAILED_JVASP-30668.cif,0.0,0.0,mBJ,0.0,-2.92329,,Immm
JVASP-41467,Tm2CuOs,FAILED_JVASP-41467.cif,0.0,0.0,mBJ,0.0,-0.42917,,Fm-3m
JVASP-25055,C,FAILED_JVASP-25055.cif,2.851,3.727,mBJ,0.876,0.30921,,I4/mmm
JVASP-39740,CrSiRu2,FAILED_JVASP-39740.cif,0.0,0.0,mBJ,0.0,-0.3148,,Fm-3m
JVASP-993,Sb,FAILED_JVASP-993.cif,0.0,0.0,mBJ,0.0,0.0,,R-3m
JVASP-29007,Te2MoWSeS,FAILED_JVASP-29007.cif,0.12,0.187,mBJ,0.067,-0.38479,,P3m1
JVASP-40477,Li4TiS4,FAILED_JVASP-40477.cif,2.359,2.708,mBJ,0.349,-1.45127,,I-42m
JVASP-1020,Tc,FAILED_JVASP-1020.cif,0.0,0.0,mBJ,0.0,1e-05,,P6_3/mmc
JVASP-25320,Ta,FAILED_JVASP-25320.cif,0.0,0.0,mBJ,0.0,0.24799,,Fm-3m
JVASP-30669,YWF5,FAILED_JVASP-30669.cif,0.0,0.829,mBJ,0.829,-2.57798,,Immm
JVASP-39311,LuRhO3,FAILED_JVASP-39311.cif,0.0,0.0,mBJ,0.0,-1.72508,,Pm-3m
JVASP-25615,Sc2TeO6,FAILED_JVASP-25615.cif,2.903,3.802,mBJ,0.899,-2.64465,,P321
JVASP-40420,Al2RuRh,FAILED_JVASP-40420.cif,0.0,0.0,mBJ,0.0,-0.90836,,Fm-3m
JVASP-54662,Ta2O5,FAILED_JVASP-54662.cif,2.519,3.866,mBJ,1.347,-2.64572,,C2
JVASP-39911,YbSnAu2,FAILED_JVASP-39911.cif,0.0,0.0,mBJ,0.0,-0.75357,,Fm-3m
JVASP-39675,TiSiRu2,FAILED_JVASP-39675.cif,0.057,0.0,mBJ,-0.057,-0.8175,,Fm-3m
JVASP-41272,HfScRh2,FAILED_JVASP-41272.cif,0.0,0.0,mBJ,0.0,-0.98299,,Fm-3m
JVASP-39267,Lu2AlZn,FAILED_JVASP-39267.cif,0.0,0.0,mBJ,0.0,-0.39333,,Fm-3m
JVASP-25012,Zn3TeAs2Pb3O14,FAILED_JVASP-25012.cif,3.075,4.487,mBJ,1.412,-1.42969,,P321
JVASP-26418,PrBi2ClO4,FAILED_JVASP-26418.cif,1.164,2.592,mBJ,1.428,-2.13696,,P4/mmm
JVASP-25135,Tb,FAILED_JVASP-25135.cif,0.0,0.0,mBJ,0.0,0.14641,,Im-3m
JVASP-40824,ZrSiPt,FAILED_JVASP-40824.cif,1.368,1.413,mBJ,0.045,-1.00587,,F-43m
JVASP-37846,Ca7H12Cl2,FAILED_JVASP-37846.cif,3.891,5.058,mBJ,1.167,-0.96902,,P-6
JVASP-35078,SrF2,FAILED_JVASP-35078.cif,6.475,8.199,mBJ,1.724,-4.02979,,P6_3/mmc
JVASP-25616,K2ScSi4O10F,FAILED_JVASP-25616.cif,4.865,5.982,mBJ,1.117,-3.03071,,I4/m
JVASP-35485,VCo2Se4,FAILED_JVASP-35485.cif,0.0,0.0,mBJ,0.0,-0.42753,,C2/m
JVASP-40784,NbGaPt,FAILED_JVASP-40784.cif,0.0,0.0,mBJ,0.0,-0.11228,,F-43m
JVASP-42102,PmBiAu2,FAILED_JVASP-42102.cif,0.0,0.0,mBJ,0.0,-0.65751,,Fm-3m
JVASP-25274,C,FAILED_JVASP-25274.cif,4.903,5.43,mBJ,0.527,0.11246,,P6_3/mmc
JVASP-25105,Ca,FAILED_JVASP-25105.cif,0.0,0.0,mBJ,0.0,0.15389,,I4/mcm
JVASP-41506,Zn3Ir,FAILED_JVASP-41506.cif,0.0,0.0,mBJ,0.0,-0.21827,,I4/mmm
JVASP-353,ZrS,FAILED_JVASP-353.cif,0.0,0.0,mBJ,0.0,-1.58926,,P4/nmm
JVASP-39160,ScTaFe2,FAILED_JVASP-39160.cif,0.0,0.0,mBJ,0.0,-0.27543,,Fm-3m
JVASP-25121,Ag,FAILED_JVASP-25121.cif,0.0,0.0,mBJ,0.0,0.0036,,P6_3/mmc
JVASP-24901,SbSCl9,FAILED_JVASP-24901.cif,1.403,2.448,mBJ,1.045,-0.44166,,C2/m
JVASP-925,Mo,FAILED_JVASP-925.cif,0.0,0.0,mBJ,0.0,-0.0,,Im-3m
JVASP-40240,ScCdAg2,FAILED_JVASP-40240.cif,0.0,0.0,mBJ,0.0,-0.26625,,Fm-3m
JVASP-26379,BaBeSiO4,FAILED_JVASP-26379.cif,4.736,7.336,mBJ,2.6,-3.12331,,Cm
JVASP-41469,Be2CuRh,FAILED_JVASP-41469.cif,0.0,0.0,mBJ,0.0,-0.40483,,Fm-3m
JVASP-39744,LiSc2Ru,FAILED_JVASP-39744.cif,0.0,0.0,mBJ,0.0,-0.40292,,Fm-3m
JVASP-39426,KTm,FAILED_JVASP-39426.cif,0.0,0.0,mBJ,0.0,0.50722,,P-6m2
JVASP-39833,Yb2HgGe,FAILED_JVASP-39833.cif,0.0,0.233,mBJ,0.233,-0.72547,,Fm-3m
JVASP-40825,TaTlPt,FAILED_JVASP-40825.cif,1.07,1.136,mBJ,0.066,-0.02847,,F-43m
JVASP-39912,YbSbPd2,FAILED_JVASP-39912.cif,0.0,0.0,mBJ,0.0,-0.83374,,Fm-3m
JVASP-54664,ScIr3C,FAILED_JVASP-54664.cif,0.0,0.0,mBJ,0.0,2.80567,,Pm-3m
JVASP-40422,KYSiS4,FAILED_JVASP-40422.cif,2.808,3.471,mBJ,0.663,-1.55153,,P2_1
JVASP-40785,HfSiPt,FAILED_JVASP-40785.cif,0.0,0.0,mBJ,0.0,-0.56218,,F-43m
JVASP-39680,LiSm2Ru,FAILED_JVASP-39680.cif,0.0,0.0,mBJ,0.0,-0.22587,,Fm-3m
JVASP-24905,K2CdAu4S4,FAILED_JVASP-24905.cif,1.964,2.922,mBJ,0.958,-0.63467,,Ibam
JVASP-40289,Pm2S3,FAILED_JVASP-40289.cif,2.47,3.522,mBJ,1.052,-2.1674,,R-3c
JVASP-14146,Zr3Ag,FAILED_JVASP-14146.cif,0.0,0.0,mBJ,0.0,0.00556,,Pm-3m
JVASP-26419,NdBi2BrO4,FAILED_JVASP-26419.cif,1.317,2.774,mBJ,1.457,-2.11163,,P4/mmm
JVASP-41380,MgBe2As2,FAILED_JVASP-41380.cif,0.693,1.267,mBJ,0.574,-0.38118,,P-3m1
JVASP-843,C,FAILED_JVASP-843.cif,0.0,0.0,mBJ,0.0,0.00151,,Fmmm
JVASP-25056,Be,FAILED_JVASP-25056.cif,0.0,0.0,mBJ,0.0,0.00021,,P6_3/mmc
JVASP-41330,Hf2OsRh,FAILED_JVASP-41330.cif,0.0,0.0,mBJ,0.0,-0.82736,,Fm-3m
JVASP-25342,V,FAILED_JVASP-25342.cif,0.0,0.0,mBJ,0.0,0.25133,,Fm-3m
JVASP-840,Br,FAILED_JVASP-840.cif,1.308,2.438,mBJ,1.13,3e-05,,Cmce
JVASP-39313,NdHo3,FAILED_JVASP-39313.cif,0.0,0.0,mBJ,0.0,0.01906,,P6_3/mmc
JVASP-42103,PmBiPd2,FAILED_JVASP-42103.cif,0.0,0.0,mBJ,0.0,-0.73166,,Fm-3m
JVASP-25047,P,FAILED_JVASP-25047.cif,0.0,0.0,mBJ,0.0,0.05275,,R-3m
JVASP-26380,LuBi2ClO4,FAILED_JVASP-26380.cif,1.545,3.307,mBJ,1.762,-2.23782,,P4/mmm
JVASP-25343,Cr,FAILED_JVASP-25343.cif,0.0,0.0,mBJ,0.0,0.3834,,Fm-3m
JVASP-40424,Al2FeNi,FAILED_JVASP-40424.cif,0.0,0.0,mBJ,0.0,-0.51906,,Fm-3m
JVASP-40826,ZrSnPt,FAILED_JVASP-40826.cif,0.998,1.06,mBJ,0.062,-1.02481,,F-43m
JVASP-39222,SbRh3,FAILED_JVASP-39222.cif,0.0,0.0,mBJ,0.0,-0.19902,,Pm-3m
JVASP-39955,Ti3In,FAILED_JVASP-39955.cif,0.0,0.0,mBJ,0.0,-0.12331,,P6_3/mmc
JVASP-54667,NaHO,FAILED_JVASP-54667.cif,3.716,6.541,mBJ,2.825,-1.37649,,R3m
JVASP-40290,SmMgHg2,FAILED_JVASP-40290.cif,0.0,0.0,mBJ,0.0,-0.37228,,Fm-3m
JVASP-40366,LiHo2Pt,FAILED_JVASP-40366.cif,0.0,0.0,mBJ,0.0,-0.7148,,Fm-3m
JVASP-40002,HoNbRu2,FAILED_JVASP-40002.cif,0.0,0.0,mBJ,0.0,-0.35576,,Fm-3m
JVASP-41470,Tm2CoIr,FAILED_JVASP-41470.cif,0.0,0.0,mBJ,0.0,-0.68781,,Fm-3m
JVASP-40786,TiGePt,FAILED_JVASP-40786.cif,0.0,0.0,mBJ,0.0,-0.43057,,F-43m
JVASP-58354,SiO2,FAILED_JVASP-58354.cif,5.309,9.149,mBJ,3.84,-2.84975,,P6_3/mmc
JVASP-819,Ar,FAILED_JVASP-819.cif,8.718,13.639,mBJ,4.921,0.0,,Fm-3m
JVASP-22775,Al12Tc,FAILED_JVASP-22775.cif,0.0,0.0,mBJ,0.0,-0.1845,,Im-3
JVASP-23186,BaCoO3,FAILED_JVASP-23186.cif,0.0,0.0,mBJ,0.0,-2.01238,,P6_3/mmc
JVASP-1047,Xe,FAILED_JVASP-1047.cif,6.149,8.555,mBJ,2.406,9e-05,,Fm-3m
JVASP-38210,Rb3Pr,FAILED_JVASP-38210.cif,0.0,0.0,mBJ,0.0,0.55502,,Fm-3m
JVASP-35528,CdAg2I4,FAILED_JVASP-35528.cif,1.611,2.988,mBJ,1.377,-0.36589,,I-42m
JVASP-25224,Fe,FAILED_JVASP-25224.cif,0.0,0.0,mBJ,0.0,0.74222,,Pm-3m
JVASP-39427,HoScRu2,FAILED_JVASP-39427.cif,0.0,0.0,mBJ,0.0,-0.49769,,Fm-3m
JVASP-41276,LiPaPt2,FAILED_JVASP-41276.cif,0.0,0.0,mBJ,0.0,-0.86392,,Fm-3m
JVASP-25106,Au,FAILED_JVASP-25106.cif,0.0,0.0,mBJ,0.0,0.00494,,P6_3/mmc
JVASP-39162,ScCu3,FAILED_JVASP-39162.cif,0.0,0.0,mBJ,0.0,-0.20492,,I4/mmm
JVASP-40787,SrAlGa,FAILED_JVASP-40787.cif,0.0,0.0,mBJ,0.0,0.28217,,F-43m
JVASP-25275,C,FAILED_JVASP-25275.cif,4.738,5.21,mBJ,0.472,0.10852,,P6_3/mmc
JVASP-23780,U2Co2Sn,FAILED_JVASP-23780.cif,0.0,0.0,mBJ,0.0,-0.24663,,P4/mbm
JVASP-59671,PbO2,FAILED_JVASP-59671.cif,0.025,0.114,mBJ,0.089,-0.94668,,Pbcn
JVASP-35442,U2W2C3,FAILED_JVASP-35442.cif,0.0,0.0,mBJ,0.0,-0.33724,,C2/m
JVASP-26420,YBi2BrO4,FAILED_JVASP-26420.cif,1.461,3.086,mBJ,1.625,-2.1786,,P4/mmm
JVASP-41508,DyTaRu2,FAILED_JVASP-41508.cif,0.0,0.0,mBJ,0.0,-0.3929,,Fm-3m
JVASP-40828,VSnPt,FAILED_JVASP-40828.cif,0.0,0.584,mBJ,0.584,-0.27103,,F-43m
JVASP-25167,He,FAILED_JVASP-25167.cif,17.733,32.189,mBJ,14.456,0.0,,P6_3/mmc
JVASP-25072,Te,FAILED_JVASP-25072.cif,0.0,0.0,mBJ,0.0,0.03832,,Pmc2_1
JVASP-39748,Yb2AsAu,FAILED_JVASP-39748.cif,0.219,0.676,mBJ,0.457,-1.20324,,Fm-3m
JVASP-25276,Xe,FAILED_JVASP-25276.cif,6.149,8.381,mBJ,2.232,0.00024,,Fm-3m
JVASP-40003,HfTc2W,FAILED_JVASP-40003.cif,0.0,0.0,mBJ,0.0,-0.47782,,Fm-3m
JVASP-32143,P2S7,FAILED_JVASP-32143.cif,1.754,2.547,mBJ,0.793,-0.14035,,P-1
JVASP-56283,Sr2IN,FAILED_JVASP-56283.cif,1.999,2.763,mBJ,0.764,-1.2893,,R-3m
JVASP-25057,U,FAILED_JVASP-25057.cif,0.0,0.0,mBJ,0.0,0.35576,,Fm-3m
JVASP-22776,TmAl,FAILED_JVASP-22776.cif,0.0,0.0,mBJ,0.0,-0.4337,,Pbcm
JVASP-39685,Li2TlBi,FAILED_JVASP-39685.cif,0.383,0.479,mBJ,0.096,-0.40409,,Fm-3m
JVASP-28934,Te2MoWSeS,FAILED_JVASP-28934.cif,0.079,0.0,mBJ,-0.079,-0.34877,,P3m1
JVASP-25345,Zr,FAILED_JVASP-25345.cif,0.0,0.0,mBJ,0.0,0.03583,,Fm-3m
JVASP-39465,Re3W,FAILED_JVASP-39465.cif,0.0,0.0,mBJ,0.0,-0.01116,,P6_3/mmc
JVASP-54668,NaHO,FAILED_JVASP-54668.cif,3.716,6.541,mBJ,2.825,-1.37649,,R3m
JVASP-39959,AcN,FAILED_JVASP-39959.cif,0.183,1.591,mBJ,1.408,-1.2558,,P6_3mc
JVASP-25107,Sc,FAILED_JVASP-25107.cif,0.0,0.041,mBJ,0.041,0.70188,,Pm-3m
JVASP-59647,U3Se4,FAILED_JVASP-59647.cif,0.0,0.0,mBJ,0.0,-1.12767,,I-43d
JVASP-25122,Sr,FAILED_JVASP-25122.cif,0.0,0.0,mBJ,0.0,0.25041,,I4_1/amd
JVASP-54670,CdH2O2,FAILED_JVASP-54670.cif,1.798,3.917,mBJ,2.119,-1.0855,,Cm
JVASP-25321,Np,FAILED_JVASP-25321.cif,0.0,0.0,mBJ,0.0,-0.32392,,P4/nmm
JVASP-40046,TiInPd2,FAILED_JVASP-40046.cif,0.0,0.0,mBJ,0.0,-0.55384,,Fm-3m
JVASP-39914,HfGaIr2,FAILED_JVASP-39914.cif,0.0,0.0,mBJ,0.0,-0.72267,,Fm-3m
JVASP-41382,MgFeRh2,FAILED_JVASP-41382.cif,0.0,0.0,mBJ,0.0,-0.28686,,Fm-3m
JVASP-40291,Sm2ZnIr,FAILED_JVASP-40291.cif,0.0,0.0,mBJ,0.0,-0.61602,,Fm-3m
JVASP-39109,Sc2AlIr,FAILED_JVASP-39109.cif,0.0,0.0,mBJ,0.0,-0.79546,,Fm-3m
JVASP-25277,O,FAILED_JVASP-25277.cif,1.278,3.509,mBJ,2.231,0.07953,,C2/m
JVASP-25058,Ni,FAILED_JVASP-25058.cif,0.0,0.0,mBJ,0.0,0.09628,,Im-3m
JVASP-25346,Nb,FAILED_JVASP-25346.cif,0.0,0.0,mBJ,0.0,0.3276,,Fm-3m
JVASP-39962,CaPrAg2,FAILED_JVASP-39962.cif,0.0,0.0,mBJ,0.0,-0.36923,,Fm-3m
JVASP-39428,LuScPd2,FAILED_JVASP-39428.cif,0.0,0.0,mBJ,0.0,-0.96691,,Fm-3m
JVASP-49921,Ga3NO3,FAILED_JVASP-49921.cif,1.907,3.413,mBJ,1.506,-1.55457,,R-3m
JVASP-39875,IrCl3,FAILED_JVASP-39875.cif,0.482,0.583,mBJ,0.101,0.00085,,P6_3/mmc
JVASP-25619,KSnSO4F,FAILED_JVASP-25619.cif,3.897,5.425,mBJ,1.528,-1.88537,,P-1
JVASP-28345,GaN,FAILED_JVASP-28345.cif,1.163,2.315,mBJ,1.152,-0.13936,,P6_3/mmc
JVASP-41383,MgH8Cl2O12,FAILED_JVASP-41383.cif,5.679,8.302,mBJ,2.623,-0.75075,,C2/m
JVASP-40428,KYGeS4,FAILED_JVASP-40428.cif,2.322,3.204,mBJ,0.882,-1.37701,,P2_1
JVASP-41509,Tm2NiIr,FAILED_JVASP-41509.cif,0.0,0.0,mBJ,0.0,-0.82504,,Fm-3m
JVASP-25073,Sb,FAILED_JVASP-25073.cif,0.0,0.0,mBJ,0.0,0.34809,,Fm-3m
JVASP-15854,AlCo3C,FAILED_JVASP-15854.cif,0.0,0.0,mBJ,0.0,-0.2374,,Pm-3m
JVASP-40005,HoTaRu2,FAILED_JVASP-40005.cif,0.0,0.0,mBJ,0.0,-0.4264,,Fm-3m
JVASP-38214,Rb3Os,FAILED_JVASP-38214.cif,0.0,0.0,mBJ,0.0,1.20554,,Fm-3m
JVASP-39812,TmCdAu2,FAILED_JVASP-39812.cif,0.0,0.0,mBJ,0.0,-0.71636,,Fm-3m
JVASP-40047,KTl2Bi,FAILED_JVASP-40047.cif,0.0,0.0,mBJ,0.0,-0.25411,,Fm-3m
JVASP-1008,Sn,FAILED_JVASP-1008.cif,0.0,0.0,mBJ,0.0,0.0,,Fd-3m
JVASP-39168,ScPdO3,FAILED_JVASP-39168.cif,0.0,0.0,mBJ,0.0,-1.30902,,Pm-3m
JVASP-907,Kr,FAILED_JVASP-907.cif,7.26,10.833,mBJ,3.573,0.00028,,Fm-3m
JVASP-40829,VInPt,FAILED_JVASP-40829.cif,0.0,0.0,mBJ,0.0,0.08377,,F-43m
JVASP-35392,Tb2Re2Si2C,FAILED_JVASP-35392.cif,0.0,0.0,mBJ,0.0,-0.6196,,C2/m
JVASP-25347,Mo,FAILED_JVASP-25347.cif,0.0,0.0,mBJ,0.0,0.40952,,Fm-3m
JVASP-28796,Mo3WSe2S6,FAILED_JVASP-28796.cif,0.704,0.913,mBJ,0.209,-0.86258,,P1
JVASP-25225,C,FAILED_JVASP-25225.cif,0.518,0.871,mBJ,0.353,0.48815,,Cmmm
JVASP-20256,PuO2,FAILED_JVASP-20256.cif,0.0,0.0,mBJ,0.0,-3.55253,,Fm-3m
JVASP-39750,LuPaTc2,FAILED_JVASP-39750.cif,0.0,0.0,mBJ,0.0,-0.28948,,Fm-3m
JVASP-1059,Zr,FAILED_JVASP-1059.cif,0.0,0.0,mBJ,0.0,0.00064,,P6_3/mmc
JVASP-25371,Tl,FAILED_JVASP-25371.cif,0.0,0.0,mBJ,0.0,0.01166,,R-3m
JVASP-57086,KTiPS5,FAILED_JVASP-57086.cif,1.174,1.241,mBJ,0.067,-1.01472,,C2/m
JVASP-41562,TiAlPd2,FAILED_JVASP-41562.cif,0.0,0.0,mBJ,0.0,-0.74953,,Fm-3m
JVASP-25168,Bi,FAILED_JVASP-25168.cif,0.0,0.0,mBJ,0.0,0.04054,,I4_1/amd
JVASP-25226,N,FAILED_JVASP-25226.cif,7.072,9.16,mBJ,2.088,0.00158,,R-3c
JVASP-39110,Sc2RuAu,FAILED_JVASP-39110.cif,0.0,0.0,mBJ,0.0,-0.73408,,Fm-3m
JVASP-25278,He,FAILED_JVASP-25278.cif,17.968,31.734,mBJ,13.766,0.00472,,Fm-3m
JVASP-23783,NpAl8Fe4,FAILED_JVASP-23783.cif,0.0,0.0,mBJ,0.0,-0.24711,,I4/mmm
JVASP-25322,Sn,FAILED_JVASP-25322.cif,0.0,0.0,mBJ,0.0,0.07472,,Im-3m
JVASP-25123,Sb,FAILED_JVASP-25123.cif,0.0,0.0,mBJ,0.0,0.32039,,I4/mmm
JVASP-40006,HfZnAu2,FAILED_JVASP-40006.cif,0.0,0.0,mBJ,0.0,-0.45953,,Fm-3m
JVASP-15905,K,FAILED_JVASP-15905.cif,0.0,14.498,mBJ,14.498,-0.0,,Fm-3m
JVASP-25348,Tc,FAILED_JVASP-25348.cif,0.0,0.0,mBJ,0.0,0.07232,,Fm-3m
JVASP-57088,Ga2PbO4,FAILED_JVASP-57088.cif,3.625,5.079,mBJ,1.454,-1.78061,,Cc
JVASP-39915,YbTlPd2,FAILED_JVASP-39915.cif,0.0,0.0,mBJ,0.0,-0.66457,,Fm-3m
JVASP-828,B,FAILED_JVASP-828.cif,1.687,1.786,mBJ,0.099,0.0,,R-3m
JVASP-25074,Sc,FAILED_JVASP-25074.cif,0.0,0.0,mBJ,0.0,0.10873,,Im-3m
JVASP-39754,TaZnCo2,FAILED_JVASP-39754.cif,0.0,0.0,mBJ,0.0,-0.24157,,Fm-3m
JVASP-25108,Ge,FAILED_JVASP-25108.cif,0.0,0.0,mBJ,0.0,0.36681,,P6_3/mmc
JVASP-15855,Er3AlC,FAILED_JVASP-15855.cif,0.0,0.0,mBJ,0.0,1.39844,,Pm-3m
JVASP-801,He,FAILED_JVASP-801.cif,17.835,31.997,mBJ,14.162,0.00012,,Im-3m
JVASP-39429,Nd3Sm,FAILED_JVASP-39429.cif,0.0,0.0,mBJ,0.0,0.00769,,Pm-3m
JVASP-26443,ScNbO4,FAILED_JVASP-26443.cif,3.316,3.787,mBJ,0.471,-3.23732,,P2/c
JVASP-26382,NaScAs2O7,FAILED_JVASP-26382.cif,3.648,5.181,mBJ,1.533,-2.02959,,C2
JVASP-25015,K4SnSb2F14,FAILED_JVASP-25015.cif,4.027,6.41,mBJ,2.383,-2.78502,,P-1
JVASP-39365,Lu2CoRh,FAILED_JVASP-39365.cif,0.0,0.0,mBJ,0.0,-0.69167,,Fm-3m
JVASP-25227,Bi,FAILED_JVASP-25227.cif,0.0,0.0,mBJ,0.0,0.13966,,Im-3m
JVASP-25323,Tb,FAILED_JVASP-25323.cif,0.0,0.0,mBJ,0.0,0.01113,,Fm-3m
JVASP-23306,Sr3ScNiO6,FAILED_JVASP-23306.cif,0.0,0.0,mBJ,0.0,-2.78869,,R-3c
JVASP-41563,TiAlOs2,FAILED_JVASP-41563.cif,0.0,0.0,mBJ,0.0,-0.62409,,Fm-3m
JVASP-41510,YbCd3,FAILED_JVASP-41510.cif,0.0,0.0,mBJ,0.0,-0.35523,,Fm-3m
JVASP-31013,K2MgF4,FAILED_JVASP-31013.cif,6.956,10.516,mBJ,3.56,-3.36097,,I4/mmm
JVASP-25405,Te,FAILED_JVASP-25405.cif,0.0,0.0,mBJ,0.0,0.165,,Cmmm
JVASP-40294,ScInIr2,FAILED_JVASP-40294.cif,0.0,0.0,mBJ,0.0,-0.67648,,Fm-3m
JVASP-15907,Li,FAILED_JVASP-15907.cif,0.0,0.0,mBJ,0.0,0.0,,P6_3/mmc
JVASP-35531,Cr2FeTe4,FAILED_JVASP-35531.cif,0.0,0.0,mBJ,0.0,-0.07283,,C2/m
JVASP-40578,SmMgAu2,FAILED_JVASP-40578.cif,0.0,0.0,mBJ,0.0,-0.80731,,Fm-3m
JVASP-40791,HfGePt,FAILED_JVASP-40791.cif,0.0,0.0,mBJ,0.0,-0.41835,,F-43m
JVASP-38215,Rb3Os,FAILED_JVASP-38215.cif,0.0,0.0,mBJ,0.0,1.20559,,Fm-3m
JVASP-42107,CaPmPd2,FAILED_JVASP-42107.cif,0.0,0.0,mBJ,0.0,-0.82098,,Fm-3m
JVASP-40007,Tm2RuPt,FAILED_JVASP-40007.cif,0.0,0.0,mBJ,0.0,-0.93696,,Fm-3m
JVASP-25324,Yb,FAILED_JVASP-25324.cif,0.0,0.0,mBJ,0.0,0.00364,,Im-3m
JVASP-39111,Sc2CdAg,FAILED_JVASP-39111.cif,0.0,0.0,mBJ,0.0,-0.30417,,Fm-3m
JVASP-38259,Rb3Al,FAILED_JVASP-38259.cif,0.0,0.0,mBJ,0.0,0.21089,,Fm-3m
JVASP-40632,ScGaRh2,FAILED_JVASP-40632.cif,0.0,0.0,mBJ,0.0,-0.976,,Fm-3m
JVASP-25124,Si,FAILED_JVASP-25124.cif,0.0,0.0,mBJ,0.0,0.69587,,P6_3/mmc
JVASP-28548,Te2Mo2WS4,FAILED_JVASP-28548.cif,0.029,0.033,mBJ,0.004,-0.62438,,R3m
JVASP-28348,VTe2,FAILED_JVASP-28348.cif,0.0,0.0,mBJ,0.0,-0.29282,,P-3m1
JVASP-25325,Ho,FAILED_JVASP-25325.cif,0.0,0.0,mBJ,0.0,0.14817,,Im-3m
JVASP-40367,K4P2PdS8,FAILED_JVASP-40367.cif,1.676,1.99,mBJ,0.314,-0.92859,,P-1
JVASP-29011,MoW3Se2S6,FAILED_JVASP-29011.cif,0.727,0.765,mBJ,0.038,-0.78922,,P3m1
JVASP-38216,Rb3Nd,FAILED_JVASP-38216.cif,0.0,0.0,mBJ,0.0,0.56737,,Fm-3m
JVASP-40831,HfAsRh,FAILED_JVASP-40831.cif,0.0,0.0,mBJ,0.0,-0.38065,,F-43m
JVASP-846,Ca,FAILED_JVASP-846.cif,0.0,0.0,mBJ,0.0,0.00583,,P6_3/mmc
JVASP-25059,Hf,FAILED_JVASP-25059.cif,0.0,0.0,mBJ,0.0,0.04136,,P6/mmm
JVASP-23339,UTeS,FAILED_JVASP-23339.cif,0.0,0.0,mBJ,0.0,-1.05386,,Pnma
JVASP-35446,Pu2W2C3,FAILED_JVASP-35446.cif,0.0,0.0,mBJ,0.0,-0.46322,,C2/m
JVASP-54676,AlHO2,FAILED_JVASP-54676.cif,6.061,7.424,mBJ,1.363,-2.48546,,Pnma
JVASP-25349,Ru,FAILED_JVASP-25349.cif,0.0,0.0,mBJ,0.0,0.11098,,Fm-3m
JVASP-40579,Sm2AgIr,FAILED_JVASP-40579.cif,0.0,0.0,mBJ,0.0,-0.59596,,Fm-3m
JVASP-39112,Sc2AlCu,FAILED_JVASP-39112.cif,0.0,0.0,mBJ,0.0,-0.37611,,Fm-3m
JVASP-35393,Co2NiSe4,FAILED_JVASP-35393.cif,0.0,0.0,mBJ,0.0,-0.29292,,C2/m
JVASP-25075,Te,FAILED_JVASP-25075.cif,0.0,0.0,mBJ,0.0,0.0383,,Pm-3m
JVASP-25280,C,FAILED_JVASP-25280.cif,4.697,5.172,mBJ,0.475,0.10665,,P6_3/mmc
JVASP-40296,Pm3Pb,FAILED_JVASP-40296.cif,0.0,0.0,mBJ,0.0,-0.35345,,Pm-3m
JVASP-38322,RbErO3,FAILED_JVASP-38322.cif,0.0,0.0,mBJ,0.0,-2.14281,,Pm-3m
JVASP-23340,DySiRu,FAILED_JVASP-23340.cif,0.0,0.0,mBJ,0.0,-0.79765,,Pnma
JVASP-25408,Al,FAILED_JVASP-25408.cif,0.0,0.0,mBJ,0.0,0.09589,,Im-3m
JVASP-38419,PrTmMg2,FAILED_JVASP-38419.cif,0.0,0.0,mBJ,0.0,-0.07823,,Fm-3m
JVASP-40792,TaGaPt,FAILED_JVASP-40792.cif,0.0,0.0,mBJ,0.0,-0.07102,,F-43m
JVASP-25326,P,FAILED_JVASP-25326.cif,0.0,0.0,mBJ,0.0,0.06344,,Imma
JVASP-28349,TiS2,FAILED_JVASP-28349.cif,0.0,0.0,mBJ,0.0,-0.97054,,I4/mmm
JVASP-38366,NdInRh2,FAILED_JVASP-38366.cif,0.0,0.0,mBJ,0.0,-0.61231,,Fm-3m
JVASP-25149,Si,FAILED_JVASP-25149.cif,0.56,1.106,mBJ,0.546,0.0143,,P6_3/mmc
JVASP-39841,Lu2ZnTc,FAILED_JVASP-39841.cif,0.0,0.0,mBJ,0.0,-0.26635,,Fm-3m
JVASP-40008,Tm2TlAg,FAILED_JVASP-40008.cif,0.0,0.0,mBJ,0.0,-0.3562,,Fm-3m
JVASP-25092,Sb,FAILED_JVASP-25092.cif,0.0,0.0,mBJ,0.0,0.04824,,Pm-3m
JVASP-40634,NaSi2BH2O7,FAILED_JVASP-40634.cif,4.18,6.777,mBJ,2.597,-2.24719,,P2_1
JVASP-25374,K,FAILED_JVASP-25374.cif,0.0,0.0,mBJ,0.0,-0.00029,,Cmcm
JVASP-25229,C,FAILED_JVASP-25229.cif,0.0,0.0,mBJ,0.0,0.01029,,P6/mmm
JVASP-25350,Hf,FAILED_JVASP-25350.cif,0.0,0.0,mBJ,0.0,0.07073,,Fm-3m
JVASP-38367,Pu3Sc,FAILED_JVASP-38367.cif,0.0,0.0,mBJ,0.0,0.17618,,Fm-3m
JVASP-15910,LiMgSbPd,FAILED_JVASP-15910.cif,0.0,0.0,mBJ,0.0,-0.56977,,F-43m
JVASP-39917,AlVRu2,FAILED_JVASP-39917.cif,0.0,0.0,mBJ,0.0,-0.61861,,Fm-3m
JVASP-25017,KNaPrNbO5,FAILED_JVASP-25017.cif,3.432,4.428,mBJ,0.996,-2.82131,,P4/nmm
JVASP-25109,O,FAILED_JVASP-25109.cif,1.508,2.892,mBJ,1.384,0.07614,,C2/m
JVASP-25409,Br,FAILED_JVASP-25409.cif,0.0,0.0,mBJ,0.0,0.52653,,Fm-3m
JVASP-54860,YCd3,FAILED_JVASP-54860.cif,0.0,0.0,mBJ,0.0,-0.31047,,Fm-3m
JVASP-38369,PuNiC2,FAILED_JVASP-38369.cif,0.0,0.0,mBJ,0.0,-0.24638,,Amm2
JVASP-13815,MgGeO3,FAILED_JVASP-13815.cif,2.734,4.41,mBJ,1.676,-2.19738,,Cmcm
JVASP-41513,Tm2OsAu,FAILED_JVASP-41513.cif,0.0,0.0,mBJ,0.0,-0.65099,,Fm-3m
JVASP-15858,Tb3AlC,FAILED_JVASP-15858.cif,0.0,0.0,mBJ,0.0,1.38928,,Pm-3m
JVASP-25284,Pa,FAILED_JVASP-25284.cif,0.0,0.0,mBJ,0.0,0.02068,,I4/mmm
JVASP-40525,Sc2CuOs,FAILED_JVASP-40525.cif,0.0,0.0,mBJ,0.0,-0.50518,,Fm-3m
JVASP-40793,ScCoTe,FAILED_JVASP-40793.cif,0.902,0.917,mBJ,0.015,-0.81835,,F-43m
JVASP-40832,ZrAsRh,FAILED_JVASP-40832.cif,0.0,0.0,mBJ,0.0,-0.39302,,F-43m
JVASP-40009,V3Os,FAILED_JVASP-40009.cif,0.0,0.0,mBJ,0.0,-0.36919,,Fm-3m
JVASP-25351,W,FAILED_JVASP-25351.cif,0.0,0.0,mBJ,0.0,0.4743,,Fm-3m
JVASP-39273,K3Sm,FAILED_JVASP-39273.cif,0.0,0.0,mBJ,0.0,0.5302,,I4/mmm
JVASP-35394,ScGa5Ni,FAILED_JVASP-35394.cif,0.0,0.0,mBJ,0.0,-0.4273,,P4/mmm
JVASP-15942,Sr2IrO4,FAILED_JVASP-15942.cif,0.0,0.0,mBJ,0.0,-2.17384,,I4/mmm
JVASP-40580,Sm2AgRu,FAILED_JVASP-40580.cif,0.0,0.0,mBJ,0.0,-0.31293,,Fm-3m
JVASP-40482,Li2FeP2S6,FAILED_JVASP-40482.cif,0.0,0.006,mBJ,0.006,-0.64266,,P312
JVASP-41567,Lu2AgHg,FAILED_JVASP-41567.cif,0.0,0.0,mBJ,0.0,-0.37787,,Fm-3m
JVASP-25375,In,FAILED_JVASP-25375.cif,0.0,0.0,mBJ,0.0,0.00436,,P6_3/mmc
JVASP-26383,KLiZnO2,FAILED_JVASP-26383.cif,2.522,4.205,mBJ,1.683,-1.74238,,C2/m
JVASP-25352,Re,FAILED_JVASP-25352.cif,0.0,0.0,mBJ,0.0,0.0647,,Fm-3m
JVASP-25620,Na6PbO5,FAILED_JVASP-25620.cif,1.157,2.7,mBJ,1.543,-1.45971,,Cmcm
JVASP-16268,Y3SnC,FAILED_JVASP-16268.cif,0.0,0.0,mBJ,0.0,-0.74564,,Pm-3m
JVASP-38220,NdY3,FAILED_JVASP-38220.cif,0.0,0.0,mBJ,0.0,0.01454,,Pm-3m
JVASP-25232,Hg,FAILED_JVASP-25232.cif,0.0,0.0,mBJ,0.0,0.24189,,I4/mmm
JVASP-38372,NdBeO3,FAILED_JVASP-38372.cif,0.0,0.0,mBJ,0.0,-2.737,,Pm-3m