material_id,formula,cif_path,pbe_bandgap,hse_bandgap,gap_type,correction,formation_energy,total_energy,spacegroup
JVASP-101158,MnIn2Te4,FAILED_JVASP-101158.cif,0.13,0.693,mBJ,0.563,-0.23656,,I-4
JVASP-15321,CaCuAs,FAILED_JVASP-15321.cif,0.127,0.316,mBJ,0.189,-0.88164,,P6_3/mmc
JVASP-102331,MoPt,FAILED_JVASP-102331.cif,0.0,0.0,mBJ,0.0,-0.17962,,P-6m2
JVASP-99547,KAs2Ir2,FAILED_JVASP-99547.cif,0.0,0.0,mBJ,0.0,-0.4444,,I4/mmm
JVASP-101537,AcMg3,FAILED_JVASP-101537.cif,0.0,0.0,mBJ,0.0,-0.06783,,P6_3/mmc
JVASP-100649,MnCrSi2,FAILED_JVASP-100649.cif,0.0,0.0,mBJ,0.0,-0.24555,,P2_1
JVASP-106368,CrFeAs4,FAILED_JVASP-106368.cif,0.0,0.0,mBJ,0.0,-0.15268,,P2/m
JVASP-99741,Rb2Pd,FAILED_JVASP-99741.cif,0.977,0.974,mBJ,-0.003,-0.00012,,Fm-3m
JVASP-99452,CdHgSe2,FAILED_JVASP-99452.cif,0.0,0.676,mBJ,0.676,-0.28857,,P-4m2
JVASP-100828,KBiS2,FAILED_JVASP-100828.cif,1.642,2.243,mBJ,0.601,-0.93108,,R-3m
JVASP-101749,As2S,FAILED_JVASP-101749.cif,0.0,0.0,mBJ,0.0,0.02341,,I4_1/amd
JVASP-101046,TlSnI3,FAILED_JVASP-101046.cif,1.726,2.115,mBJ,0.389,-0.61823,,Cmcm
JVASP-50953,Ba2SrI6,FAILED_JVASP-50953.cif,3.572,4.484,mBJ,0.912,-1.7689,,P-31m
JVASP-100283,NdIn,FAILED_JVASP-100283.cif,0.0,0.0,mBJ,0.0,-0.51261,,Pm-3m
JVASP-16206,GeSb,FAILED_JVASP-16206.cif,0.0,0.0,mBJ,0.0,0.14253,,Fm-3m
JVASP-103534,HfPbN2,FAILED_JVASP-103534.cif,0.849,1.436,mBJ,0.587,-0.87236,,P4/nmm
JVASP-15280,SmSi2Rh2,FAILED_JVASP-15280.cif,0.0,0.0,mBJ,0.0,-1.04929,,I4/mmm
JVASP-15235,MnAlCu2,FAILED_JVASP-15235.cif,0.0,0.0,mBJ,0.0,-0.08644,,Fm-3m
JVASP-2898,RbTeAu,FAILED_JVASP-2898.cif,1.032,1.83,mBJ,0.798,-0.70891,,Pmma
JVASP-101458,MnGaPd2,FAILED_JVASP-101458.cif,0.0,0.0,mBJ,0.0,-0.27374,,P4mm
JVASP-102281,KMg3,FAILED_JVASP-102281.cif,0.0,0.0,mBJ,0.0,0.1386,,Fm-3m
JVASP-1945,RbI,FAILED_JVASP-1945.cif,3.969,5.813,mBJ,1.844,-1.5921,,Fm-3m
JVASP-101645,YbZn2Ga2,FAILED_JVASP-101645.cif,0.0,0.0,mBJ,0.0,-0.4404,,I4/mmm
JVASP-100484,CoPd3,FAILED_JVASP-100484.cif,0.0,0.0,mBJ,0.0,0.05931,,Pm-3m
JVASP-18556,Na3Li3N2,FAILED_JVASP-18556.cif,0.036,1.182,mBJ,1.146,-0.1687,,Pm
JVASP-99504,SmYNi2,FAILED_JVASP-99504.cif,0.0,0.0,mBJ,0.0,-0.48635,,Amm2
JVASP-101216,CdInAsSe,FAILED_JVASP-101216.cif,0.0,0.816,mBJ,0.816,-0.4004,,R3m
JVASP-2667,Al2ZnTe4,FAILED_JVASP-2667.cif,1.699,2.475,mBJ,0.776,-0.50712,,I-4
JVASP-103115,CdAg2SnSe4,FAILED_JVASP-103115.cif,0.0,0.023,mBJ,0.023,-0.25459,,Pm
JVASP-48298,LiCoNiO4,FAILED_JVASP-48298.cif,0.034,0.0,mBJ,-0.034,-1.32854,,Imma
JVASP-101539,AsNO2F6,FAILED_JVASP-101539.cif,3.241,4.3,mBJ,1.059,-1.5131,,C2/m
JVASP-100284,Lu3InC,FAILED_JVASP-100284.cif,0.0,0.0,mBJ,0.0,-0.6275,,Pm-3m
JVASP-100870,CaMg3,FAILED_JVASP-100870.cif,0.0,0.0,mBJ,0.0,-0.09936,,Fm-3m
JVASP-15322,ScCo2Si2,FAILED_JVASP-15322.cif,0.0,0.0,mBJ,0.0,-0.7514,,I4/mmm
JVASP-102873,K2AlInBr6,FAILED_JVASP-102873.cif,1.911,2.081,mBJ,0.17,-1.28494,,Fm-3m
JVASP-107850,Rb2ScAgF6,FAILED_JVASP-107850.cif,3.17,4.565,mBJ,1.395,-3.12145,,Fm-3m
JVASP-101478,TbBiPd2,FAILED_JVASP-101478.cif,0.0,0.0,mBJ,0.0,-0.75706,,Fm-3m
JVASP-4080,PdSe2Br6,FAILED_JVASP-4080.cif,1.19,1.244,mBJ,0.054,-0.19774,,P-1
JVASP-100829,K5Sb4,FAILED_JVASP-100829.cif,0.0,0.0,mBJ,0.0,-0.5289,,C2/m
JVASP-2430,ZnGa2S4,FAILED_JVASP-2430.cif,2.295,3.864,mBJ,1.569,-0.80653,,I-4
JVASP-97030,KFe2Se2,FAILED_JVASP-97030.cif,0.0,0.0,mBJ,0.0,-0.50915,,I4/mmm
JVASP-16207,USbSe,FAILED_JVASP-16207.cif,0.0,0.0,mBJ,0.0,-0.8289,,P4/nmm
JVASP-100545,SnTePbSe,FAILED_JVASP-100545.cif,0.126,0.328,mBJ,0.202,-0.40503,,P4/mmm
JVASP-103400,VAu,FAILED_JVASP-103400.cif,0.0,0.0,mBJ,0.0,0.19688,,R-3m
JVASP-103589,Ca2HgBi,FAILED_JVASP-103589.cif,0.0,0.0,mBJ,0.0,-0.70558,,Fm-3m
JVASP-53578,Tb2PbS4,FAILED_JVASP-53578.cif,2.235,2.701,mBJ,0.466,-1.74152,,I-42d
JVASP-100606,LiSc2Ga,FAILED_JVASP-100606.cif,0.0,0.0,mBJ,0.0,-0.35172,,Fm-3m
JVASP-101647,HoPd2Pb,FAILED_JVASP-101647.cif,0.0,0.0,mBJ,0.0,-0.72185,,Fm-3m
JVASP-2901,RbAuS,FAILED_JVASP-2901.cif,2.173,3.313,mBJ,1.14,-0.8456,,Cmcm
JVASP-100650,LiInO2,FAILED_JVASP-100650.cif,2.039,3.623,mBJ,1.584,-1.88329,,I4_1/amd
JVASP-19910,CoPt,FAILED_JVASP-19910.cif,0.0,0.0,mBJ,0.0,-0.07007,,P4/mmm
JVASP-101697,Rb5Bi4,FAILED_JVASP-101697.cif,0.0,0.0,mBJ,0.0,-0.4467,,Cm
JVASP-99593,K2YAuF6,FAILED_JVASP-99593.cif,1.256,3.324,mBJ,2.068,-2.85747,,Fm-3m
JVASP-99505,SbPbS2,FAILED_JVASP-99505.cif,0.0,0.0,mBJ,0.0,-0.3202,,Amm2
JVASP-100784,YbHo2Se4,FAILED_JVASP-100784.cif,1.089,1.825,mBJ,0.736,-2.00704,,P2/m
JVASP-101407,Lu2TlZn,FAILED_JVASP-101407.cif,0.0,0.0,mBJ,0.0,-0.30479,,Fm-3m
JVASP-3522,ZnCl2,FAILED_JVASP-3522.cif,3.94,6.219,mBJ,2.279,-1.16173,,I-42d
JVASP-51021,GaH3O3,FAILED_JVASP-51021.cif,4.13,6.042,mBJ,1.912,-1.37653,,R-3
JVASP-102282,Li2CaAl,FAILED_JVASP-102282.cif,0.0,0.0,mBJ,0.0,-0.20838,,Fm-3m
JVASP-18795,TbTl,FAILED_JVASP-18795.cif,0.0,0.0,mBJ,0.0,-0.36641,,Pm-3m
JVASP-100486,Er2MgTc,FAILED_JVASP-100486.cif,0.0,0.0,mBJ,0.0,-0.06761,,Fm-3m
JVASP-15569,ThCr2Si2,FAILED_JVASP-15569.cif,0.0,0.0,mBJ,0.0,-0.35288,,I4/mmm
JVASP-100999,MgAg5,FAILED_JVASP-100999.cif,0.0,0.0,mBJ,0.0,-0.12315,,P-62m
JVASP-99549,YbZn2Si2,FAILED_JVASP-99549.cif,0.0,0.0,mBJ,0.0,-0.33423,,I4/mmm
JVASP-101479,KNa2AlF6,FAILED_JVASP-101479.cif,5.338,10.441,mBJ,5.103,-3.17585,,Fm-3m
JVASP-52274,CaCdO2,FAILED_JVASP-52274.cif,0.538,2.47,mBJ,1.932,-2.24207,,P4/mmm
JVASP-102159,Ba2SmTaO6,FAILED_JVASP-102159.cif,3.415,4.635,mBJ,1.22,-3.36753,,Fm-3m
JVASP-99406,Hf2Al3Ag,FAILED_JVASP-99406.cif,0.0,0.0,mBJ,0.0,-0.34788,,R-3m
JVASP-1948,CuBr,FAILED_JVASP-1948.cif,0.632,1.546,mBJ,0.914,-0.27283,,F-43m
JVASP-101103,Tb2Al3Pt,FAILED_JVASP-101103.cif,0.0,0.0,mBJ,0.0,-0.8203,,R-3m
JVASP-101599,Pm2AgOs,FAILED_JVASP-101599.cif,0.0,0.0,mBJ,0.0,-0.25215,,Fm-3m
JVASP-100670,SmHO2,FAILED_JVASP-100670.cif,4.016,5.796,mBJ,1.78,-2.73747,,P2_1/m
JVASP-2670,Al2CdTe4,FAILED_JVASP-2670.cif,1.669,2.552,mBJ,0.883,-0.49783,,I-4
JVASP-99454,NaSbN2,FAILED_JVASP-99454.cif,1.578,2.523,mBJ,0.945,0.03795,,R-3m
JVASP-99744,EuH2,FAILED_JVASP-99744.cif,0.0,0.0,mBJ,0.0,-0.45411,,P6_3/mmc
JVASP-18714,ZrGa3,FAILED_JVASP-18714.cif,0.0,0.0,mBJ,0.0,-0.44993,,I4/mmm
JVASP-100739,MnAu3,FAILED_JVASP-100739.cif,0.0,0.0,mBJ,0.0,-0.00671,,P6_3/mmc
JVASP-15206,YSi2Rh2,FAILED_JVASP-15206.cif,0.0,0.0,mBJ,0.0,-1.07317,,I4/mmm
JVASP-100871,YAgSe2,FAILED_JVASP-100871.cif,0.688,1.376,mBJ,0.688,-1.26518,,Cm
JVASP-101048,YPRu2C,FAILED_JVASP-101048.cif,0.0,0.0,mBJ,0.0,-0.70518,,Cmcm
JVASP-3957,Rb2PtI6,FAILED_JVASP-3957.cif,0.424,1.102,mBJ,0.678,-0.83094,,Fm-3m
JVASP-101751,Ag3Ge,FAILED_JVASP-101751.cif,0.0,0.0,mBJ,0.0,0.0897,,P-6m2
JVASP-103304,Sc2CuPd,FAILED_JVASP-103304.cif,0.0,0.0,mBJ,0.0,-0.63019,,Fm-3m
JVASP-14573,UC,FAILED_JVASP-14573.cif,0.0,0.0,mBJ,0.0,-0.25701,,Fm-3m
JVASP-50956,BaSrI4,FAILED_JVASP-50956.cif,2.834,3.477,mBJ,0.643,-1.78957,,C2/c
JVASP-99638,Ni3Se,FAILED_JVASP-99638.cif,0.0,0.0,mBJ,0.0,0.12405,,P6_3/mmc
JVASP-102102,AlWO4,FAILED_JVASP-102102.cif,0.0,0.824,mBJ,0.824,-2.7545,,Cmmm
JVASP-101698,PrAlZn,FAILED_JVASP-101698.cif,0.0,0.0,mBJ,0.0,-0.47684,,C2/m
JVASP-101461,HoGaAu,FAILED_JVASP-101461.cif,0.0,0.0,mBJ,0.0,-0.81023,,C2/m
JVASP-101160,LiMg,FAILED_JVASP-101160.cif,0.0,0.0,mBJ,0.0,-0.08681,,Cmmm
JVASP-101480,Li3GaF6,FAILED_JVASP-101480.cif,5.931,9.746,mBJ,3.815,-2.83593,,Fm-3m
JVASP-103539,W2C,FAILED_JVASP-103539.cif,0.0,0.0,mBJ,0.0,-0.3842,,Pnnm
JVASP-2433,Ca4P2O,FAILED_JVASP-2433.cif,1.269,1.956,mBJ,0.687,-1.87803,,I4/mmm
JVASP-1612,NaLuS2,FAILED_JVASP-1612.cif,2.432,3.417,mBJ,0.985,-2.01603,,R-3m
JVASP-100334,TeSe,FAILED_JVASP-100334.cif,0.413,1.059,mBJ,0.646,-0.01745,,P1
JVASP-15570,TiAlCo2,FAILED_JVASP-15570.cif,0.0,0.0,mBJ,0.0,-0.6362,,Fm-3m
JVASP-99595,K2RbBiI6,FAILED_JVASP-99595.cif,2.778,3.324,mBJ,0.546,-0.97212,,Fm-3m
JVASP-3960,Rb2PdCl6,FAILED_JVASP-3960.cif,1.091,1.741,mBJ,0.65,-1.27055,,Fm-3m
JVASP-4083,ClF,FAILED_JVASP-4083.cif,2.092,3.799,mBJ,1.707,-0.37725,,P2_1/c
JVASP-1201,CuCl,FAILED_JVASP-1201.cif,0.729,1.587,mBJ,0.858,-0.43344,,F-43m
JVASP-100740,NaAg2Sn,FAILED_JVASP-100740.cif,0.0,0.0,mBJ,0.0,-0.11822,,Fm-3m
JVASP-103218,NaCaH6Ir,FAILED_JVASP-103218.cif,3.537,3.81,mBJ,0.273,-0.57187,,F-43m
JVASP-100287,SmNiBi,FAILED_JVASP-100287.cif,0.248,0.287,mBJ,0.039,-0.70869,,F-43m
JVASP-101049,Sr2PrNbO6,FAILED_JVASP-101049.cif,2.94,3.767,mBJ,0.827,-3.08749,,Fm-3m
JVASP-101648,NiSn2Au,FAILED_JVASP-101648.cif,0.0,0.0,mBJ,0.0,-0.23259,,P-3m1
JVASP-99508,InSn3,FAILED_JVASP-99508.cif,0.0,0.0,mBJ,0.0,0.05956,,P-6m2
JVASP-101481,K3GaF6,FAILED_JVASP-101481.cif,5.998,9.61,mBJ,3.612,-2.96382,,Fm-3m
JVASP-100427,BiPbIO2,FAILED_JVASP-100427.cif,1.845,2.666,mBJ,0.821,-1.21967,,I4mm
JVASP-2673,Al2HgTe4,FAILED_JVASP-2673.cif,1.116,1.738,mBJ,0.622,-0.36632,,I-4
JVASP-100547,SiPN3,FAILED_JVASP-100547.cif,4.54,5.697,mBJ,1.157,-0.71187,,P2_1
JVASP-103590,Cd2RhAu,FAILED_JVASP-103590.cif,0.0,0.0,mBJ,0.0,-0.12161,,Fm-3m
JVASP-13963,ScOF,FAILED_JVASP-13963.cif,4.586,5.446,mBJ,0.86,-3.92817,,P2_1/c
JVASP-15207,ThCr2Ge2,FAILED_JVASP-15207.cif,0.0,0.0,mBJ,0.0,-0.25583,,I4/mmm
JVASP-103651,SiIr2,FAILED_JVASP-103651.cif,0.0,0.0,mBJ,0.0,-0.25039,,P6_3/mmc
JVASP-15458,MnSbRh,FAILED_JVASP-15458.cif,0.0,0.0,mBJ,0.0,-0.17,,F-43m
JVASP-101104,Tb2InAg,FAILED_JVASP-101104.cif,0.0,0.0,mBJ,0.0,-0.42964,,P4/mmm
JVASP-14981,HfAl3,FAILED_JVASP-14981.cif,0.0,0.0,mBJ,0.0,-0.38948,,I4/mmm
JVASP-99551,Th2Si3Ru,FAILED_JVASP-99551.cif,0.002,0.0,mBJ,-0.002,-0.73007,,Imm2
JVASP-100150,Yb3Ba,FAILED_JVASP-100150.cif,0.0,0.0,mBJ,0.0,0.04251,,Fm-3m
JVASP-100489,Ho2ZnPt,FAILED_JVASP-100489.cif,0.0,0.0,mBJ,0.0,-0.87307,,Fm-3m
JVASP-100872,Ho2Mo2C3,FAILED_JVASP-100872.cif,0.0,0.0,mBJ,0.0,-0.42557,,C2/m
JVASP-102283,Li3Ni,FAILED_JVASP-102283.cif,0.0,0.0,mBJ,0.0,-0.00774,,I4/mmm
JVASP-42158,LiMnSiO4,FAILED_JVASP-42158.cif,0.0,0.0,mBJ,0.0,-2.37447,,Cmcm
JVASP-100188,Li2CeGa,FAILED_JVASP-100188.cif,0.0,0.014,mBJ,0.014,-0.15406,,Fm-3m
JVASP-4495,Nb2CS2,FAILED_JVASP-4495.cif,0.0,0.0,mBJ,0.0,-0.93901,,P-3m1
JVASP-101161,LiHoS2,FAILED_JVASP-101161.cif,0.314,1.106,mBJ,0.792,-1.95884,,P4/mmm
JVASP-102213,Dy2Ga3Ni,FAILED_JVASP-102213.cif,0.0,0.0,mBJ,0.0,-0.64897,,P3m1
JVASP-99639,Pm2AlGa,FAILED_JVASP-99639.cif,0.0,0.0,mBJ,0.0,-0.48188,,Fm-3m
JVASP-1951,NaBr,FAILED_JVASP-1951.cif,4.404,6.848,mBJ,2.444,-1.68273,,Fm-3m
JVASP-1615,KSmTe2,FAILED_JVASP-1615.cif,1.256,1.882,mBJ,0.626,-1.48267,,R-3m
JVASP-101000,MgGe,FAILED_JVASP-101000.cif,0.0,0.0,mBJ,0.0,-0.15065,,C2/m
JVASP-100673,K2LiSbI6,FAILED_JVASP-100673.cif,1.772,2.046,mBJ,0.274,-0.9459,,Fm-3m
JVASP-43114,Li2FeO2,FAILED_JVASP-43114.cif,0.0,0.0,mBJ,0.0,-1.62465,,P-3m1
JVASP-102876,Rb2AlHgF6,FAILED_JVASP-102876.cif,0.0,4.329,mBJ,4.329,-2.86639,,Fm-3m
JVASP-101649,ScBiPd,FAILED_JVASP-101649.cif,0.183,0.181,mBJ,-0.002,-0.8352,,F-43m
JVASP-101482,K3PdF6,FAILED_JVASP-101482.cif,0.0,0.38,mBJ,0.38,-2.35337,,Fm-3m
JVASP-100290,LiCa2Ge,FAILED_JVASP-100290.cif,0.0,0.472,mBJ,0.472,-0.46046,,Fm-3m
JVASP-100335,TcNi,FAILED_JVASP-100335.cif,0.0,0.0,mBJ,0.0,0.06753,,P-6m2
JVASP-18593,ScAg4,FAILED_JVASP-18593.cif,0.0,0.0,mBJ,0.0,-0.22198,,I4/m
JVASP-2754,SrCd2P2,FAILED_JVASP-2754.cif,0.725,1.627,mBJ,0.902,-0.65435,,P-3m1
JVASP-99456,FeAs2O7,FAILED_JVASP-99456.cif,0.033,0.0,mBJ,-0.033,-1.12886,,C2
JVASP-99596,AlRhO3,FAILED_JVASP-99596.cif,1.77,1.924,mBJ,0.154,-2.06147,,P6_3/mmc
JVASP-99793,KNpO3,FAILED_JVASP-99793.cif,0.0,0.0,mBJ,0.0,-3.00602,,Pm-3m
JVASP-100943,MgGaCu3Se4,FAILED_JVASP-100943.cif,0.0,0.0,mBJ,0.0,-0.3347,,P-43m
JVASP-100428,BaAlSn,FAILED_JVASP-100428.cif,0.0,0.263,mBJ,0.263,-0.54367,,P-6m2
JVASP-100375,LiHoSe2,FAILED_JVASP-100375.cif,0.172,0.724,mBJ,0.552,-1.69656,,P4/mmm
JVASP-99746,CoSI,FAILED_JVASP-99746.cif,0.0,0.0,mBJ,0.0,-0.14435,,R3m
JVASP-101752,Ag2BiSbTe4,FAILED_JVASP-101752.cif,0.0,0.0,mBJ,0.0,-0.08041,,I-4m2
JVASP-15755,OsC,FAILED_JVASP-15755.cif,0.0,0.0,mBJ,0.0,0.89994,,P-6m2
JVASP-15237,HfGaCo2,FAILED_JVASP-15237.cif,0.0,0.0,mBJ,0.0,-0.48951,,Fm-3m
JVASP-100493,LiPr2Al,FAILED_JVASP-100493.cif,0.0,0.0,mBJ,0.0,-0.20225,,Fm-3m
JVASP-14574,ErSe,FAILED_JVASP-14574.cif,0.0,1.378,mBJ,1.378,-1.75609,,Fm-3m
JVASP-15323,MnSbPd,FAILED_JVASP-15323.cif,0.0,0.0,mBJ,0.0,-0.01848,,F-43m
JVASP-102284,LiDy2Tl,FAILED_JVASP-102284.cif,0.0,0.0,mBJ,0.0,-0.20494,,Fm-3m
JVASP-100873,YbBiO3,FAILED_JVASP-100873.cif,0.0,0.0,mBJ,0.0,-2.16228,,R3c
JVASP-103121,CaTi2S4,FAILED_JVASP-103121.cif,0.0,0.0,mBJ,0.0,-1.73127,,P2/m
JVASP-2337,ZnSnP2,FAILED_JVASP-2337.cif,0.586,1.689,mBJ,1.103,-0.21399,,I-42d
JVASP-1561,NaScO2,FAILED_JVASP-1561.cif,4.037,5.212,mBJ,1.175,-3.10092,,R-3m
JVASP-15682,LuNi2B2C,FAILED_JVASP-15682.cif,0.0,0.0,mBJ,0.0,-0.55944,,I4/mmm
JVASP-103593,CdHg3,FAILED_JVASP-103593.cif,0.0,0.0,mBJ,0.0,0.18855,,P6_3/mmc
JVASP-15460,NdScGe,FAILED_JVASP-15460.cif,0.0,0.0,mBJ,0.0,-0.74017,,I4/mmm
JVASP-99457,KNa2RhF6,FAILED_JVASP-99457.cif,2.242,2.746,mBJ,0.504,-2.29217,,Fm-3m
JVASP-103404,Tl2BiSbTe4,FAILED_JVASP-103404.cif,0.29,0.54,mBJ,0.25,-0.26971,,P2/m
JVASP-101651,ErNiBi,FAILED_JVASP-101651.cif,0.153,0.141,mBJ,-0.012,-0.71069,,F-43m
JVASP-102337,InAgGeSe4,FAILED_JVASP-102337.cif,0.708,1.5,mBJ,0.792,-0.35548,,I-4
JVASP-15019,NbO,FAILED_JVASP-15019.cif,0.0,0.0,mBJ,0.0,-1.37045,,Fm-3m
JVASP-4089,RbBiO2,FAILED_JVASP-4089.cif,2.192,3.562,mBJ,1.37,-1.50669,,C2/c
JVASP-100655,HoMnIn,FAILED_JVASP-100655.cif,0.0,0.0,mBJ,0.0,-0.04524,,P-6m2
JVASP-101542,BeAsRu2,FAILED_JVASP-101542.cif,0.0,0.0,mBJ,0.0,-0.17885,,Fm-3m
JVASP-2757,BaMg2P2,FAILED_JVASP-2757.cif,1.151,1.675,mBJ,0.524,-1.06409,,P-3m1
JVASP-15361,NdSi2Pd2,FAILED_JVASP-15361.cif,0.0,0.0,mBJ,0.0,-0.88532,,I4/mmm
JVASP-100675,K2PrAgF6,FAILED_JVASP-100675.cif,2.23,4.817,mBJ,2.587,-2.93737,,Fm-3m
JVASP-99410,Y4S3N2,FAILED_JVASP-99410.cif,1.499,2.083,mBJ,0.584,-2.15518,,C2/m
JVASP-1618,NaTmS2,FAILED_JVASP-1618.cif,2.382,3.203,mBJ,0.821,-2.01865,,R-3m
JVASP-14595,Si,FAILED_JVASP-14595.cif,0.0,0.0,mBJ,0.0,0.40273,,Fmmm
JVASP-50375,TbSmO3,FAILED_JVASP-50375.cif,4.661,6.116,mBJ,1.455,-3.6777,,Pnma
JVASP-15158,ErFe2B2,FAILED_JVASP-15158.cif,0.0,0.0,mBJ,0.0,-0.50302,,I4/mmm
JVASP-22604,Cr2F5,FAILED_JVASP-22604.cif,0.0,0.0,mBJ,0.0,-2.09558,,C2/c
JVASP-103222,AcAlO3,FAILED_JVASP-103222.cif,4.319,5.307,mBJ,0.988,-3.59055,,Pm-3m
JVASP-100292,SrPAu,FAILED_JVASP-100292.cif,0.0,0.0,mBJ,0.0,-0.99206,,P6_3/mmc
JVASP-101162,LiNdSe2,FAILED_JVASP-101162.cif,0.085,0.538,mBJ,0.453,-1.69615,,P4/mmm
JVASP-102215,ErScB2O6,FAILED_JVASP-102215.cif,4.618,5.527,mBJ,0.909,-3.29301,,R-3
JVASP-100336,TcIr,FAILED_JVASP-100336.cif,0.0,0.0,mBJ,0.0,-0.21503,,P-6m2
JVASP-103312,SrEu3,FAILED_JVASP-103312.cif,0.0,0.0,mBJ,0.0,0.14092,,I4/mmm
JVASP-101411,Sr2PdPt,FAILED_JVASP-101411.cif,0.0,0.0,mBJ,0.0,-0.79097,,Fm-3m
JVASP-48537,Li2VO2F2,FAILED_JVASP-48537.cif,0.0,0.0,mBJ,0.0,-2.76826,,P2/c
JVASP-102106,Ca3Eu,FAILED_JVASP-102106.cif,0.0,0.0,mBJ,0.0,0.12276,,Pm-3m
JVASP-100152,CaMg,FAILED_JVASP-100152.cif,0.0,0.0,mBJ,0.0,-0.11616,,P4/mmm
JVASP-99552,TbZnAgAs2,FAILED_JVASP-99552.cif,0.251,0.811,mBJ,0.56,-0.62393,,P3m1
JVASP-100835,GaCuSe2,FAILED_JVASP-100835.cif,0.0,0.0,mBJ,0.0,-0.25647,,P4/mmm
JVASP-19876,Er2In,FAILED_JVASP-19876.cif,0.0,0.0,mBJ,0.0,-0.35687,,P6_3/mmc
JVASP-15282,TbCo2B2,FAILED_JVASP-15282.cif,0.0,0.0,mBJ,0.0,-0.58948,,I4/mmm
JVASP-102888,Rb2AlAuCl6,FAILED_JVASP-102888.cif,0.534,1.873,mBJ,1.339,-1.46678,,Fm-3m
JVASP-17898,ZnFeF6,FAILED_JVASP-17898.cif,0.0,0.0,mBJ,0.0,-2.15281,,R-3
JVASP-20104,ThC,FAILED_JVASP-20104.cif,0.0,0.0,mBJ,0.0,-0.41567,,Fm-3m
JVASP-102166,V3NiO6,FAILED_JVASP-102166.cif,0.0,0.0,mBJ,0.0,-2.19804,,R3
JVASP-101703,NaNO3,FAILED_JVASP-101703.cif,2.872,4.548,mBJ,1.676,-0.99031,,R32
JVASP-99513,AgSbS2,FAILED_JVASP-99513.cif,0.333,0.724,mBJ,0.391,-0.22571,,R-3m
JVASP-100874,SrCaI4,FAILED_JVASP-100874.cif,3.424,4.198,mBJ,0.774,-1.76452,,P2/m
JVASP-51152,SrZr2Nb,FAILED_JVASP-51152.cif,0.0,0.0,mBJ,0.0,0.66581,,F-43m
JVASP-100745,Pm2NiPt,FAILED_JVASP-100745.cif,0.0,0.0,mBJ,0.0,-0.74996,,Fm-3m
JVASP-101001,MgNi,FAILED_JVASP-101001.cif,0.0,0.0,mBJ,0.0,-0.23188,,P4/mmm
JVASP-100791,Th2PNO,FAILED_JVASP-100791.cif,1.363,1.931,mBJ,0.568,-2.50636,,P3m1
JVASP-3966,K3BrO,FAILED_JVASP-3966.cif,1.017,3.21,mBJ,2.193,-1.50881,,Pm-3m
JVASP-101053,PrIn2Ir,FAILED_JVASP-101053.cif,0.0,0.0,mBJ,0.0,-0.562,,Cmcm
JVASP-19846,GaNi3,FAILED_JVASP-19846.cif,0.0,0.0,mBJ,0.0,-0.27342,,Pm-3m
JVASP-15238,UGeSe,FAILED_JVASP-15238.cif,0.0,0.0,mBJ,0.0,-0.8411,,I4/mmm
JVASP-14596,As,FAILED_JVASP-14596.cif,0.0,0.0,mBJ,0.0,0.12267,,Pm-3m
JVASP-99411,RbPrO2,FAILED_JVASP-99411.cif,3.554,4.826,mBJ,1.272,-2.77698,,R-3m
JVASP-101487,K2LiAsF6,FAILED_JVASP-101487.cif,4.707,5.638,mBJ,0.931,-2.75292,,Fm-3m
JVASP-1954,AgCl,FAILED_JVASP-1954.cif,0.925,2.878,mBJ,1.953,-0.47159,,Fm-3m
JVASP-15046,Nb3Au,FAILED_JVASP-15046.cif,0.0,0.0,mBJ,0.0,-0.09425,,Pm-3n
JVASP-5197,SbSI,FAILED_JVASP-5197.cif,1.16,1.235,mBJ,0.075,-0.25249,,Pmmn
JVASP-103126,Ba2TaMnO6,FAILED_JVASP-103126.cif,0.0,0.0,mBJ,0.0,-2.90434,,Fm-3m
JVASP-100553,MgCdC2O6,FAILED_JVASP-100553.cif,3.818,6.045,mBJ,2.227,-1.81994,,R-3
JVASP-43121,Li2VCrO4,FAILED_JVASP-43121.cif,0.0,0.0,mBJ,0.0,-2.29136,,I-4m2
JVASP-100293,DySi2Ag2,FAILED_JVASP-100293.cif,0.0,0.0,mBJ,0.0,-0.34671,,I4/mmm
JVASP-14653,SnRh,FAILED_JVASP-14653.cif,0.0,0.0,mBJ,0.0,-0.39545,,P2_13
JVASP-99459,K2InAsI6,FAILED_JVASP-99459.cif,0.0,0.0,mBJ,0.0,-0.74106,,Fm-3m
JVASP-305,TiO2,FAILED_JVASP-305.cif,0.0,0.0,mBJ,0.0,-0.41758,,P6_3/mmc
JVASP-17899,CaVF6,FAILED_JVASP-17899.cif,0.0,4.355,mBJ,4.355,-3.40049,,R-3
JVASP-103598,ErThRu2,FAILED_JVASP-103598.cif,0.0,0.0,mBJ,0.0,-0.52414,,Fm-3m
JVASP-99686,K2RbAlF6,FAILED_JVASP-99686.cif,6.38,9.922,mBJ,3.542,-3.30866,,Fm-3m
JVASP-99885,SrAl2Ga2,FAILED_JVASP-99885.cif,0.0,0.0,mBJ,0.0,-0.42807,,I4/mmm
JVASP-1540,Al2Os,FAILED_JVASP-1540.cif,0.368,0.412,mBJ,0.044,-0.58309,,I4/mmm
JVASP-100945,AlCu3HgSe4,FAILED_JVASP-100945.cif,0.0,0.0,mBJ,0.0,-0.18587,,P-43m
JVASP-18847,TbSnAu,FAILED_JVASP-18847.cif,0.0,0.0,mBJ,0.0,-0.84111,,P6_3mc
JVASP-100153,Yb3Ca,FAILED_JVASP-100153.cif,0.0,0.0,mBJ,0.0,0.0203,,P6_3/mmc
JVASP-107868,Rb3SbI6,FAILED_JVASP-107868.cif,2.366,2.738,mBJ,0.372,-1.00905,,Fm-3m
JVASP-598,CrS2,FAILED_JVASP-598.cif,0.0,0.0,mBJ,0.0,-0.5715,,R-3m
JVASP-2091,PbF4,FAILED_JVASP-2091.cif,1.849,3.02,mBJ,1.171,-1.9023,,I4/mmm
JVASP-101754,MgInS3,FAILED_JVASP-101754.cif,0.0,0.471,mBJ,0.471,-0.79711,,C2/m
JVASP-101704,NaBiS2,FAILED_JVASP-101704.cif,1.667,2.339,mBJ,0.672,-0.87505,,R-3m
JVASP-20105,ScCu,FAILED_JVASP-20105.cif,0.0,0.0,mBJ,0.0,-0.32794,,Pm-3m
JVASP-101544,Ca2AgPd,FAILED_JVASP-101544.cif,0.0,0.0,mBJ,0.0,-0.61035,,Fm-3m
JVASP-100837,Fe3Si4Ir,FAILED_JVASP-100837.cif,0.0,0.0,mBJ,0.0,-0.41442,,R3
JVASP-101057,PrNiBi,FAILED_JVASP-101057.cif,0.297,0.297,mBJ,0.0,-0.69471,,F-43m
JVASP-17900,MgFeF6,FAILED_JVASP-17900.cif,0.0,0.0,mBJ,0.0,-2.65418,,R-3
JVASP-15792,CaSi2Au2,FAILED_JVASP-15792.cif,0.0,0.0,mBJ,0.0,-0.46929,,I4/mmm
JVASP-1957,AgI,FAILED_JVASP-1957.cif,1.26,2.868,mBJ,1.608,-0.20327,,F-43m
JVASP-3969,K3IO,FAILED_JVASP-3969.cif,1.24,2.779,mBJ,1.539,-1.42592,,Pm-3m
JVASP-2676,MgPdF6,FAILED_JVASP-2676.cif,1.941,1.89,mBJ,-0.051,-2.2598,,R-3
JVASP-103406,UF3,FAILED_JVASP-103406.cif,0.0,0.0,mBJ,0.0,-3.49948,,P-3m1
JVASP-101163,LiSiAg2,FAILED_JVASP-101163.cif,0.0,0.0,mBJ,0.0,-0.04116,,P4/mmm
JVASP-42889,Ti2AlMo,FAILED_JVASP-42889.cif,0.0,0.0,mBJ,0.0,-0.31592,,Fm-3m
JVASP-15571,SmCo3B2,FAILED_JVASP-15571.cif,0.0,0.0,mBJ,0.0,-0.44861,,P6/mmm
JVASP-100499,PmTmAl2,FAILED_JVASP-100499.cif,0.0,0.0,mBJ,0.0,-0.40007,,Fm-3m
JVASP-101415,Tb3Sc,FAILED_JVASP-101415.cif,0.0,0.0,mBJ,0.0,0.03296,,Pm-3m
JVASP-100747,PmHoAl2,FAILED_JVASP-100747.cif,0.0,0.0,mBJ,0.0,-0.40744,,Fm-3m
JVASP-103127,AlInSb2,FAILED_JVASP-103127.cif,0.242,0.942,mBJ,0.7,-0.15849,,P-4m2
JVASP-99928,SrCaS2,FAILED_JVASP-99928.cif,2.398,3.472,mBJ,1.074,-2.34105,,P4/mmm
JVASP-100086,K2LiRuF6,FAILED_JVASP-100086.cif,0.0,0.0,mBJ,0.0,-2.59974,,Fm-3m
JVASP-99413,Na2TlAgF6,FAILED_JVASP-99413.cif,0.0,1.301,mBJ,1.301,-1.93856,,Fm-3m
JVASP-19877,NpSn3,FAILED_JVASP-19877.cif,0.0,0.0,mBJ,0.0,-0.21509,,Pm-3m
JVASP-54714,H7BrO3,FAILED_JVASP-54714.cif,4.076,6.236,mBJ,2.16,-0.86548,,Cc
JVASP-16208,Hf2Si,FAILED_JVASP-16208.cif,0.0,0.0,mBJ,0.0,-0.68063,,I4/mcm
JVASP-99600,MgAu2,FAILED_JVASP-99600.cif,0.0,0.0,mBJ,0.0,-0.50279,,Cmcm
JVASP-50826,BSbO3,FAILED_JVASP-50826.cif,2.899,4.117,mBJ,1.218,-1.9648,,P-1