material_id,formula,cif_path,pbe_bandgap,hse_bandgap,gap_type,correction,formation_energy,total_energy,spacegroup
JVASP-102187,PrHoAl4,FAILED_JVASP-102187.cif,0.0,0.0,mBJ,0.0,-0.50921,,F-43m
JVASP-20085,VP,FAILED_JVASP-20085.cif,0.0,0.0,mBJ,0.0,-0.80749,,P6_3/mmc
JVASP-3465,InPS4,FAILED_JVASP-3465.cif,2.329,3.469,mBJ,1.14,-0.40388,,I-4
JVASP-15050,TiGa,FAILED_JVASP-15050.cif,0.0,0.0,mBJ,0.0,-0.45469,,P4/mmm
JVASP-101946,CdH4C4O4,FAILED_JVASP-101946.cif,3.747,5.612,mBJ,1.865,-0.71331,,P-1
JVASP-100858,AlInN2,FAILED_JVASP-100858.cif,1.528,2.196,mBJ,0.668,-0.78672,,I-42d
JVASP-50480,ErNbO4,FAILED_JVASP-50480.cif,3.301,3.957,mBJ,0.656,-3.34895,,P2/c
JVASP-102699,Nd2CdSb4,FAILED_JVASP-102699.cif,0.0,0.0,mBJ,0.0,-0.72861,,P-4m2
JVASP-102505,HoLuCu2,FAILED_JVASP-102505.cif,0.0,0.0,mBJ,0.0,-0.35187,,Fm-3m
JVASP-101566,Ho2RuPt,FAILED_JVASP-101566.cif,0.0,0.0,mBJ,0.0,-0.89591,,Fm-3m
JVASP-101850,HC2SNO2,FAILED_JVASP-101850.cif,1.072,2.046,mBJ,0.974,-0.13656,,P1
JVASP-15211,FeSiRu2,FAILED_JVASP-15211.cif,0.0,0.0,mBJ,0.0,-0.25731,,Fm-3m
JVASP-28388,B2S2O9,FAILED_JVASP-28388.cif,7.122,9.289,mBJ,2.167,-1.66988,,C2
JVASP-50827,BaCaI4,FAILED_JVASP-50827.cif,3.72,4.507,mBJ,0.787,-1.76609,,P2/c
JVASP-101802,H4C6S2O,FAILED_JVASP-101802.cif,2.18,2.759,mBJ,0.579,0.03896,,P1
JVASP-101080,YbTm2Se4,FAILED_JVASP-101080.cif,1.092,1.916,mBJ,0.824,-2.01456,,P2/m
JVASP-102407,Rb2GaAuI6,FAILED_JVASP-102407.cif,0.0,0.0,mBJ,0.0,-0.77455,,Fm-3m
JVASP-100725,Li2InBi,FAILED_JVASP-100725.cif,0.022,0.052,mBJ,0.03,-0.39086,,Fm-3m
JVASP-3009,CaZn2As2,FAILED_JVASP-3009.cif,0.405,1.261,mBJ,0.856,-0.69868,,P-3m1
JVASP-106276,Tb3Y,FAILED_JVASP-106276.cif,0.0,0.0,mBJ,0.0,0.0138,,Pm-3m
JVASP-15666,DyCo2Si2,FAILED_JVASP-15666.cif,0.0,0.0,mBJ,0.0,-0.79348,,I4/mmm
JVASP-100591,RuPt,FAILED_JVASP-100591.cif,0.0,0.0,mBJ,0.0,0.08324,,P4/mmm
JVASP-15576,TmBRh3,FAILED_JVASP-15576.cif,0.0,0.0,mBJ,0.0,-0.82356,,Pm-3m
JVASP-100637,TaO2F,FAILED_JVASP-100637.cif,1.598,2.894,mBJ,1.296,-3.02949,,P4/mmm
JVASP-18927,YbZn2,FAILED_JVASP-18927.cif,0.0,0.0,mBJ,0.0,-0.436,,Imma
JVASP-101624,YbBi3,FAILED_JVASP-101624.cif,0.0,0.0,mBJ,0.0,-0.41722,,Pm-3m
JVASP-102756,GaAgSe2,FAILED_JVASP-102756.cif,0.0,0.783,mBJ,0.783,-0.40624,,P-4m2
JVASP-14722,Cr3Pt,FAILED_JVASP-14722.cif,0.0,0.0,mBJ,0.0,-0.01576,,Pm-3n
JVASP-101726,Er2InAg,FAILED_JVASP-101726.cif,0.0,0.0,mBJ,0.0,-0.42886,,P4/mmm
JVASP-104620,TbErHg2,FAILED_JVASP-104620.cif,0.0,0.0,mBJ,0.0,-0.40006,,Fm-3m
JVASP-102408,Rb2PrAgI6,FAILED_JVASP-102408.cif,2.62,3.309,mBJ,0.689,-1.22992,,Fm-3m
JVASP-101023,Tb3Y,FAILED_JVASP-101023.cif,0.0,0.0,mBJ,0.0,0.00859,,I4/mmm
JVASP-103574,Rb3YF6,FAILED_JVASP-103574.cif,5.859,9.378,mBJ,3.519,-3.46698,,Fm-3m
JVASP-18850,PrAgSn,FAILED_JVASP-18850.cif,0.0,0.0,mBJ,0.0,-0.63604,,P6_3mc
JVASP-103355,DyH3,FAILED_JVASP-103355.cif,0.0,2.08,mBJ,2.08,-0.41941,,P-3m1
JVASP-100928,Rb2ScInF6,FAILED_JVASP-100928.cif,3.732,3.679,mBJ,-0.053,-3.22313,,Fm-3m
JVASP-2931,Al2Te5,FAILED_JVASP-2931.cif,1.055,1.547,mBJ,0.492,-0.35621,,C2/m
JVASP-49852,BaCa2I6,FAILED_JVASP-49852.cif,3.445,4.257,mBJ,0.812,-1.69894,,P4_2/mnm
JVASP-2340,Sr2PdO3,FAILED_JVASP-2340.cif,0.254,0.215,mBJ,-0.039,-2.30145,,Immm
JVASP-15140,TbSi2Rh2,FAILED_JVASP-15140.cif,0.0,0.0,mBJ,0.0,-1.061,,I4/mmm
JVASP-102451,Al3Sn,FAILED_JVASP-102451.cif,0.0,0.0,mBJ,0.0,0.15277,,Pm-3m
JVASP-101081,Y2Mg3Zn3,FAILED_JVASP-101081.cif,0.0,0.0,mBJ,0.0,-0.32046,,R3m
JVASP-103278,MgNbOs2,FAILED_JVASP-103278.cif,0.0,0.0,mBJ,0.0,-0.14712,,Fm-3m
JVASP-103084,InSb,FAILED_JVASP-103084.cif,0.0,0.0,mBJ,0.0,-0.00336,,I-4m2
JVASP-103016,RbO,FAILED_JVASP-103016.cif,0.009,0.0,mBJ,-0.009,-0.85951,,Cmcm
JVASP-102808,Al3Ni2Pt,FAILED_JVASP-102808.cif,0.0,0.0,mBJ,0.0,-0.75479,,P4/mmm
JVASP-14606,Ag,FAILED_JVASP-14606.cif,0.0,0.0,mBJ,0.0,0.0,,Fm-3m
JVASP-43884,Li3FeF6,FAILED_JVASP-43884.cif,0.0,0.0,mBJ,0.0,-2.71313,,P-31c
JVASP-2062,TlBiSe2,FAILED_JVASP-2062.cif,0.253,0.68,mBJ,0.427,-0.4699,,R-3m
JVASP-104997,ScHO2,FAILED_JVASP-104997.cif,4.011,5.097,mBJ,1.086,-2.74041,,P2_1/m
JVASP-3012,NaBeAs,FAILED_JVASP-3012.cif,1.499,2.322,mBJ,0.823,-0.47401,,P6_3/mmc
JVASP-103358,Pb2BrOF,FAILED_JVASP-103358.cif,2.39,3.601,mBJ,1.211,-1.63421,,Cmme
JVASP-102700,Nd2Ga7Pd,FAILED_JVASP-102700.cif,0.0,0.0,mBJ,0.0,-0.57519,,P-4m2
JVASP-101568,HoErIr2,FAILED_JVASP-101568.cif,0.0,0.0,mBJ,0.0,-1.00387,,Fm-3m
JVASP-18481,PuBrO,FAILED_JVASP-18481.cif,0.0,0.0,mBJ,0.0,-2.78406,,P4/nmm
JVASP-102507,Li2TlHg,FAILED_JVASP-102507.cif,0.0,0.0,mBJ,0.0,-0.29781,,Fm-3m
JVASP-15408,UAl3Pd2,FAILED_JVASP-15408.cif,0.0,0.0,mBJ,0.0,-0.57274,,P6/mmm
JVASP-103625,Pm2AlIn,FAILED_JVASP-103625.cif,0.0,0.0,mBJ,0.0,-0.44986,,Fm-3m
JVASP-42464,Ni2Mo,FAILED_JVASP-42464.cif,0.0,0.0,mBJ,0.0,-0.10411,,Immm
JVASP-102550,PmSmAl2,FAILED_JVASP-102550.cif,0.0,0.0,mBJ,0.0,-0.41073,,Fm-3m
JVASP-16235,NiB2Mo2,FAILED_JVASP-16235.cif,0.0,0.0,mBJ,0.0,-0.43974,,Immm
JVASP-101625,ZnInPd2,FAILED_JVASP-101625.cif,0.0,0.0,mBJ,0.0,-0.48555,,Fm-3m
JVASP-104835,AgPdAu2,FAILED_JVASP-104835.cif,0.0,0.0,mBJ,0.0,-0.08761,,Fm-3m
JVASP-101024,TbErIr2,FAILED_JVASP-101024.cif,0.0,0.0,mBJ,0.0,-0.96492,,Fm-3m
JVASP-104946,Mn2SbAs,FAILED_JVASP-104946.cif,0.0,0.0,mBJ,0.0,-0.03686,,P-6m2
JVASP-18672,Ti2Co,FAILED_JVASP-18672.cif,0.0,0.0,mBJ,0.0,0.41132,,Fd-3m
JVASP-104670,YbLu2Se4,FAILED_JVASP-104670.cif,1.132,1.987,mBJ,0.855,-2.0043,,P2/m
JVASP-104895,Tb2NiAs2,FAILED_JVASP-104895.cif,0.0,0.0,mBJ,0.0,-1.28361,,P6_3/mmc
JVASP-105489,Hg2TeSe,FAILED_JVASP-105489.cif,0.0,0.0,mBJ,0.0,0.02606,,R3m
JVASP-3981,K4CdP2,FAILED_JVASP-3981.cif,0.88,2.238,mBJ,1.358,-0.44555,,R-3m
JVASP-103021,CeSi3Pt,FAILED_JVASP-103021.cif,0.0,0.0,mBJ,0.0,-0.71891,,I4mm
JVASP-100979,Hf2CuTc,FAILED_JVASP-100979.cif,0.0,0.0,mBJ,0.0,-0.36,,Fm-3m
JVASP-1648,KErTe2,FAILED_JVASP-1648.cif,1.331,2.045,mBJ,0.714,-1.45533,,R-3m
JVASP-105191,LiY2Tl,FAILED_JVASP-105191.cif,0.0,0.0,mBJ,0.0,-0.26383,,Fm-3m
JVASP-101130,Pr2ZnAs4,FAILED_JVASP-101130.cif,0.0,0.0,mBJ,0.0,-0.92281,,P-4m2
JVASP-105110,Ac2MgGa,FAILED_JVASP-105110.cif,0.0,0.0,mBJ,0.0,-0.27967,,Fm-3m
JVASP-102267,Rb2TlRhF6,FAILED_JVASP-102267.cif,1.912,2.316,mBJ,0.404,-2.3041,,Fm-3m
JVASP-103731,AsPd6Pb,FAILED_JVASP-103731.cif,0.0,0.0,mBJ,0.0,-0.19763,,R-3m
JVASP-18456,LiSnS2,FAILED_JVASP-18456.cif,0.0,0.924,mBJ,0.924,-0.79455,,P-3m1
JVASP-102313,ZnCuAu2,FAILED_JVASP-102313.cif,0.0,0.0,mBJ,0.0,-0.14556,,P2/m
JVASP-2238,KSnSb,FAILED_JVASP-2238.cif,0.314,1.111,mBJ,0.797,-0.40335,,P6_3mc
JVASP-102810,AlAg4,FAILED_JVASP-102810.cif,0.0,0.0,mBJ,0.0,-0.03483,,R-3m
JVASP-16068,CaP2Rh2,FAILED_JVASP-16068.cif,0.0,0.0,mBJ,0.0,-0.96115,,I4/mmm
JVASP-104621,TbDyRh2,FAILED_JVASP-104621.cif,0.0,0.0,mBJ,0.0,-0.9212,,Fm-3m
JVASP-104836,YbAcAu2,FAILED_JVASP-104836.cif,0.0,0.0,mBJ,0.0,-0.97774,,Fm-3m
JVASP-102605,NaSr2IO6,FAILED_JVASP-102605.cif,2.414,4.039,mBJ,1.625,-1.97219,,Fm-3m
JVASP-104947,Mn2TeSe,FAILED_JVASP-104947.cif,0.0,0.0,mBJ,0.0,-0.10853,,R-3m
JVASP-105407,SmZnCuAs2,FAILED_JVASP-105407.cif,0.0,0.18,mBJ,0.18,-0.69209,,P3m1
JVASP-103280,MgS,FAILED_JVASP-103280.cif,3.585,5.208,mBJ,1.623,-1.60506,,P6_3mc
JVASP-102653,Y3SiS2,FAILED_JVASP-102653.cif,0.0,0.0,mBJ,0.0,-1.8128,,Immm
JVASP-42174,V6O11F,FAILED_JVASP-42174.cif,0.0,0.0,mBJ,0.0,-2.60244,,P1
JVASP-28571,Te2W3Se4,FAILED_JVASP-28571.cif,0.851,0.847,mBJ,-0.004,-0.34759,,P1
JVASP-102452,AgAs,FAILED_JVASP-102452.cif,0.0,0.0,mBJ,0.0,0.18455,,Pmmm
JVASP-101253,V2ZnO6,FAILED_JVASP-101253.cif,2.157,2.511,mBJ,0.354,-2.2768,,C2/m
JVASP-14723,TmAu,FAILED_JVASP-14723.cif,0.0,0.0,mBJ,0.0,-0.95536,,Pm-3m
JVASP-50481,ErAlO3,FAILED_JVASP-50481.cif,6.123,7.547,mBJ,1.424,-3.64914,,Pnma
JVASP-14607,Pt,FAILED_JVASP-14607.cif,0.0,0.0,mBJ,0.0,-0.0,,Fm-3m
JVASP-15030,IrO2,FAILED_JVASP-15030.cif,0.0,0.0,mBJ,0.0,-0.94891,,P4_2/mnm
JVASP-101626,Yb2ZnHg,FAILED_JVASP-101626.cif,0.0,0.0,mBJ,0.0,-0.51877,,Fm-3m
JVASP-102251,VF4,FAILED_JVASP-102251.cif,0.733,3.199,mBJ,2.466,-2.84461,,Cmmm
JVASP-104897,TmPd2Pb,FAILED_JVASP-104897.cif,0.0,0.0,mBJ,0.0,-0.72123,,Fm-3m
JVASP-2448,GaAgSe2,FAILED_JVASP-2448.cif,0.21,1.56,mBJ,1.35,-0.4228,,I-42d
JVASP-14989,NbN,FAILED_JVASP-14989.cif,0.0,0.0,mBJ,0.0,-1.2324,,P-6m2
JVASP-2691,NaNbS2,FAILED_JVASP-2691.cif,0.748,1.15,mBJ,0.402,-1.33969,,P6_3/mmc
JVASP-18503,U3Si2C2,FAILED_JVASP-18503.cif,0.0,0.0,mBJ,0.0,-0.27424,,I4/mmm
JVASP-105490,In2Bi,FAILED_JVASP-105490.cif,0.0,0.0,mBJ,0.0,0.00677,,Fmmm
JVASP-101678,VAg3HgO4,FAILED_JVASP-101678.cif,1.417,1.63,mBJ,0.213,-1.11884,,P1
JVASP-12940,Ba2Bi2O5,FAILED_JVASP-12940.cif,1.993,2.975,mBJ,0.982,-2.09376,,P2_1/c
JVASP-102412,KRb2AlF6,FAILED_JVASP-102412.cif,6.756,9.912,mBJ,3.156,-3.40432,,Fm-3m
JVASP-102317,Y2AsS,FAILED_JVASP-102317.cif,0.0,0.0,mBJ,0.0,-1.95331,,R-3m
JVASP-105192,LiDy2Rh,FAILED_JVASP-105192.cif,0.0,0.0,mBJ,0.0,-0.53111,,Fm-3m
JVASP-106495,Ca2TlSn,FAILED_JVASP-106495.cif,0.0,0.0,mBJ,0.0,-0.62468,,Fm-3m
JVASP-103174,K2DyAuCl6,FAILED_JVASP-103174.cif,2.018,3.192,mBJ,1.174,-1.69784,,Fm-3m
JVASP-101027,TbTmIn2,FAILED_JVASP-101027.cif,0.0,0.0,mBJ,0.0,-0.46269,,Fm-3m
JVASP-102702,Nd2CoSb4,FAILED_JVASP-102702.cif,0.0,0.0,mBJ,0.0,-0.72934,,P-4m2
JVASP-14608,Na,FAILED_JVASP-14608.cif,0.0,23.495,mBJ,23.495,0.00163,,Im-3m
JVASP-3243,Ca4Sb2O,FAILED_JVASP-3243.cif,0.954,1.332,mBJ,0.378,-1.7964,,I4/mmm
JVASP-103628,SrSn3,FAILED_JVASP-103628.cif,0.0,0.0,mBJ,0.0,-0.46573,,Pm-3m
JVASP-5293,MnH,FAILED_JVASP-5293.cif,0.0,0.0,mBJ,0.0,0.29366,,P6_3/mmc
JVASP-49853,TmGaO3,FAILED_JVASP-49853.cif,3.929,5.554,mBJ,1.625,-2.97385,,Pnma
JVASP-22720,Ba2SbAu,FAILED_JVASP-22720.cif,0.7,0.892,mBJ,0.192,-1.05052,,Fm-3m
JVASP-19850,HgSe,FAILED_JVASP-19850.cif,0.0,0.0,mBJ,0.0,0.00402,,F-43m
JVASP-19,TiTe,FAILED_JVASP-19.cif,0.0,0.0,mBJ,0.0,-0.36794,,P6_3/mmc
JVASP-103578,NaBiS2,FAILED_JVASP-103578.cif,0.978,1.3,mBJ,0.322,-0.84949,,I4_1/amd
JVASP-18525,Rb2WBr6,FAILED_JVASP-18525.cif,0.0,0.0,mBJ,0.0,-1.14395,,Fm-3m
JVASP-2937,K3Sb2Au3,FAILED_JVASP-2937.cif,1.01,1.548,mBJ,0.538,-0.51047,,R-3m
JVASP-14724,CoN,FAILED_JVASP-14724.cif,0.0,0.0,mBJ,0.0,-0.01854,,F-43m
JVASP-104622,TbHoIn2,FAILED_JVASP-104622.cif,0.0,0.0,mBJ,0.0,-0.47949,,Fm-3m
JVASP-50612,Ti3NbCu3O12,FAILED_JVASP-50612.cif,0.0,0.0,mBJ,0.0,-2.21545,,R-3
JVASP-101194,Ga2CoNi,FAILED_JVASP-101194.cif,0.0,0.0,mBJ,0.0,-0.29476,,P4/mmm
JVASP-104777,LiSnN,FAILED_JVASP-104777.cif,1.071,1.31,mBJ,0.239,-0.31751,,P6_3mc
JVASP-104672,TmCuGe,FAILED_JVASP-104672.cif,0.0,0.0,mBJ,0.0,-0.65343,,P-6m2
JVASP-102762,Er2CuNi,FAILED_JVASP-102762.cif,0.0,0.0,mBJ,0.0,-0.46429,,Amm2
JVASP-101535,AlF3,FAILED_JVASP-101535.cif,7.533,11.011,mBJ,3.478,-3.70171,,Cmmm
JVASP-103732,AlV6Sn,FAILED_JVASP-103732.cif,0.0,0.0,mBJ,0.0,-0.08662,,Pm-3
JVASP-15063,USi3,FAILED_JVASP-15063.cif,0.0,0.0,mBJ,0.0,-0.26268,,Pm-3m
JVASP-16001,K2RhF6,FAILED_JVASP-16001.cif,0.0,0.0,mBJ,0.0,-2.37733,,P-3m1
JVASP-101737,CdAu,FAILED_JVASP-101737.cif,0.0,0.0,mBJ,0.0,-0.12654,,P-6m2
JVASP-103192,Na3TlI6,FAILED_JVASP-103192.cif,0.0,0.813,mBJ,0.813,-0.65835,,Fm-3m
JVASP-101628,ZrGaRu2,FAILED_JVASP-101628.cif,0.0,0.0,mBJ,0.0,-0.55371,,Fm-3m
JVASP-101569,GeRh3,FAILED_JVASP-101569.cif,0.0,0.0,mBJ,0.0,-0.20202,,P6_3/mmc
JVASP-102511,KIn3,FAILED_JVASP-102511.cif,0.0,0.0,mBJ,0.0,-0.10438,,Fm-3m
JVASP-14991,YSe,FAILED_JVASP-14991.cif,0.0,1.413,mBJ,1.413,-1.86769,,Fm-3m
JVASP-5071,BaIn2Te4,FAILED_JVASP-5071.cif,0.904,1.465,mBJ,0.561,-0.78452,,Cccm
JVASP-103676,TmAlNi4,FAILED_JVASP-103676.cif,0.0,0.0,mBJ,0.0,-0.51361,,P-6m2
JVASP-102413,KRb2IrF6,FAILED_JVASP-102413.cif,2.482,3.281,mBJ,0.799,-2.4596,,Fm-3m
JVASP-2454,Sm2SO2,FAILED_JVASP-2454.cif,3.043,4.622,mBJ,1.579,-3.35068,,P-3m1
JVASP-15410,Ti3TlC,FAILED_JVASP-15410.cif,0.0,0.0,mBJ,0.0,-0.46583,,Pm-3m
JVASP-104840,CaSbPd2,FAILED_JVASP-104840.cif,0.0,0.0,mBJ,0.0,-0.73598,,Fm-3m
JVASP-103485,Fe2Si,FAILED_JVASP-103485.cif,0.0,0.0,mBJ,0.0,-0.19903,,I4/mmm
JVASP-5677,Al2Te3,FAILED_JVASP-5677.cif,1.776,2.273,mBJ,0.497,-0.48681,,P2_1/c
JVASP-105410,SiGe,FAILED_JVASP-105410.cif,0.694,1.073,mBJ,0.379,0.01025,,F-43m
JVASP-105491,Ho2In3Cu,FAILED_JVASP-105491.cif,0.0,0.0,mBJ,0.0,-0.41678,,P3m1
JVASP-15829,BiO2,FAILED_JVASP-15829.cif,0.0,0.072,mBJ,0.072,-0.9516,,R-3m
JVASP-50967,Tb2SeO2,FAILED_JVASP-50967.cif,2.259,3.481,mBJ,1.222,-3.27251,,I4/mmm
JVASP-15164,ZrGeTe,FAILED_JVASP-15164.cif,0.0,0.0,mBJ,0.0,-0.8014,,P4/nmm
JVASP-19881,TaNi3,FAILED_JVASP-19881.cif,0.0,0.0,mBJ,0.0,-0.37535,,Pmmn
JVASP-106452,Rb2AgBiF6,FAILED_JVASP-106452.cif,2.471,3.853,mBJ,1.382,-2.41235,,Fm-3m
JVASP-2550,BaAg2GeS4,FAILED_JVASP-2550.cif,0.574,1.819,mBJ,1.245,-0.85222,,I-42m
JVASP-104624,YbDyCd2,FAILED_JVASP-104624.cif,0.0,0.0,mBJ,0.0,-0.42571,,Fm-3m
JVASP-101738,Cd2SnGeAs4,FAILED_JVASP-101738.cif,0.118,0.202,mBJ,0.084,-0.09261,,I-4
JVASP-103092,HfScSi2,FAILED_JVASP-103092.cif,0.0,0.0,mBJ,0.0,-0.76678,,Amm2
JVASP-15668,TmCo2Ge2,FAILED_JVASP-15668.cif,0.0,0.0,mBJ,0.0,-0.59495,,I4/mmm
JVASP-104949,Li2SnPd,FAILED_JVASP-104949.cif,0.0,0.0,mBJ,0.0,-0.6269,,F-43m
JVASP-3987,DyCl3,FAILED_JVASP-3987.cif,3.605,5.007,mBJ,1.402,-2.36916,,Cmcm
JVASP-54762,TeH6O6,FAILED_JVASP-54762.cif,3.087,4.289,mBJ,1.202,-0.95488,,P-1
JVASP-19895,CoPt3,FAILED_JVASP-19895.cif,0.0,0.0,mBJ,0.0,-0.04642,,Pm-3m
JVASP-15763,Tb,FAILED_JVASP-15763.cif,0.0,0.0,mBJ,0.0,0.01113,,Fm-3m
JVASP-15288,ZrSiS,FAILED_JVASP-15288.cif,0.0,0.0,mBJ,0.0,-1.27997,,P4/nmm
JVASP-14609,Ge,FAILED_JVASP-14609.cif,0.0,0.0,mBJ,0.0,0.1388,,R-3
JVASP-101739,CaHF,FAILED_JVASP-101739.cif,4.717,6.929,mBJ,2.212,-2.41571,,F-43m
JVASP-14992,Na3N,FAILED_JVASP-14992.cif,0.0,0.0,mBJ,0.0,0.11432,,Pm-3m
JVASP-102556,SmErIr2,FAILED_JVASP-102556.cif,0.0,0.0,mBJ,0.0,-0.88266,,Fm-3m
JVASP-102454,Al3Au,FAILED_JVASP-102454.cif,0.0,0.0,mBJ,0.0,-0.12817,,I4/mmm
JVASP-102704,NaNd2Se3,FAILED_JVASP-102704.cif,0.0,0.0,mBJ,0.0,-1.8316,,Immm
JVASP-103094,Ge2TeSe,FAILED_JVASP-103094.cif,0.536,0.463,mBJ,-0.073,-0.161,,R-3m
JVASP-18673,CrGaFe2,FAILED_JVASP-18673.cif,0.0,0.0,mBJ,0.0,-0.04589,,Fm-3m
JVASP-15064,HfRu,FAILED_JVASP-15064.cif,0.0,0.0,mBJ,0.0,-0.82313,,Pm-3m
JVASP-106496,Cd,FAILED_JVASP-106496.cif,0.0,0.0,mBJ,0.0,-0.00992,,R-3m
JVASP-102854,CaZn,FAILED_JVASP-102854.cif,0.0,0.0,mBJ,0.0,-0.16658,,R-3m
JVASP-3015,ThCu2P2,FAILED_JVASP-3015.cif,0.146,0.446,mBJ,0.3,-0.79016,,P-3m1
JVASP-50881,BaY2F8,FAILED_JVASP-50881.cif,6.349,8.283,mBJ,1.934,-4.19599,,P4/mmm
JVASP-102319,TlPb,FAILED_JVASP-102319.cif,0.0,0.0,mBJ,0.0,-0.01756,,R-3m
JVASP-22570,K3MoF6,FAILED_JVASP-22570.cif,0.0,0.0,mBJ,0.0,-2.61302,,Fm-3m
JVASP-50829,CaY2O4,FAILED_JVASP-50829.cif,4.255,5.443,mBJ,1.188,-3.63539,,Fd-3m
JVASP-104841,CdHg3,FAILED_JVASP-104841.cif,0.0,0.0,mBJ,0.0,0.18224,,Fm-3m
JVASP-15366,TlNi2Se2,FAILED_JVASP-15366.cif,0.0,0.329,mBJ,0.329,-0.26532,,I4/mmm
JVASP-1783,PrCuO2,FAILED_JVASP-1783.cif,2.422,2.637,mBJ,0.215,-2.40735,,R-3m
JVASP-102813,ScBC,FAILED_JVASP-102813.cif,0.0,0.0,mBJ,0.0,-0.6786,,P6_3/mmc
JVASP-105196,LiPmIn2,FAILED_JVASP-105196.cif,0.0,0.0,mBJ,0.0,-0.44434,,Fm-3m
JVASP-18435,CuCO3,FAILED_JVASP-18435.cif,0.0,0.0,mBJ,0.0,-0.9343,,Cm
JVASP-43150,Li2Cr2FeO6,FAILED_JVASP-43150.cif,0.0,0.0,mBJ,0.0,-1.93929,,Cmce
JVASP-101258,LiVF6,FAILED_JVASP-101258.cif,2.841,3.296,mBJ,0.455,-2.94622,,C2/m
JVASP-49855,Li8BiO6,FAILED_JVASP-49855.cif,0.0,1.628,mBJ,1.628,-1.89144,,R-3
JVASP-22687,Sr2HN,FAILED_JVASP-22687.cif,1.864,2.994,mBJ,1.13,-0.80494,,R-3m
JVASP-101031,TiMnIr2,FAILED_JVASP-101031.cif,0.0,0.0,mBJ,0.0,-0.55667,,Fm-3m
JVASP-102415,Rb2NaMoI6,FAILED_JVASP-102415.cif,1.084,1.595,mBJ,0.511,-0.94704,,Fm-3m
JVASP-5680,Hg2TeO3,FAILED_JVASP-5680.cif,2.041,4.037,mBJ,1.996,-0.571,,Pma2
JVASP-105010,K3AsF6,FAILED_JVASP-105010.cif,4.422,5.821,mBJ,1.399,-2.64747,,Fm-3m
JVASP-2457,NbCu3S4,FAILED_JVASP-2457.cif,1.64,1.568,mBJ,-0.072,-0.63456,,P-43m
JVASP-101741,BiSb,FAILED_JVASP-101741.cif,0.034,0.073,mBJ,0.039,-0.00937,,R3m
JVASP-104535,Rb3PdF6,FAILED_JVASP-104535.cif,0.0,0.193,mBJ,0.193,-2.3588,,Fm-3m
JVASP-2346,CdGa2S4,FAILED_JVASP-2346.cif,2.113,3.706,mBJ,1.593,-0.74605,,I-4
JVASP-19882,ScPt,FAILED_JVASP-19882.cif,0.0,0.0,mBJ,0.0,-1.29653,,Pm-3m
JVASP-105583,TiO2,FAILED_JVASP-105583.cif,2.327,2.944,mBJ,0.617,-3.08953,,R-3m
JVASP-18851,TbAgSn,FAILED_JVASP-18851.cif,0.0,0.0,mBJ,0.0,-0.6119,,P6_3mc
JVASP-102320,Tm2TeS2,FAILED_JVASP-102320.cif,1.777,2.445,mBJ,0.668,-1.95848,,Immm
JVASP-105113,Al3Pd,FAILED_JVASP-105113.cif,0.0,0.0,mBJ,0.0,-0.34077,,Pm-3m
JVASP-106454,Rb2InAgF6,FAILED_JVASP-106454.cif,1.629,3.62,mBJ,1.991,-2.51174,,Fm-3m
JVASP-18506,Hf3Te2,FAILED_JVASP-18506.cif,0.0,0.0,mBJ,0.0,-0.58964,,I4/mmm
JVASP-102855,YAgSe2,FAILED_JVASP-102855.cif,0.412,0.926,mBJ,0.514,-1.24123,,I4_1/amd
JVASP-102416,Rb2NaNdI6,FAILED_JVASP-102416.cif,3.054,3.722,mBJ,0.668,-1.47086,,Fm-3m
JVASP-101090,TiNbAlC,FAILED_JVASP-101090.cif,0.0,0.0,mBJ,0.0,-0.64225,,P-3m1
JVASP-18802,SrAgBi,FAILED_JVASP-18802.cif,0.0,0.0,mBJ,0.0,-0.65605,,P6_3/mmc
JVASP-16069,SrP2Rh2,FAILED_JVASP-16069.cif,0.0,0.0,mBJ,0.0,-0.94807,,I4/mmm
JVASP-15165,CaCo2P2,FAILED_JVASP-15165.cif,0.0,0.0,mBJ,0.0,-0.88346,,I4/mmm
JVASP-2790,Si3NiP4,FAILED_JVASP-2790.cif,0.405,0.745,mBJ,0.34,-0.25111,,I-42m
JVASP-3990,ErSeI,FAILED_JVASP-3990.cif,2.194,2.921,mBJ,0.727,-1.72165,,Pmmn
JVASP-104571,GaSb3,FAILED_JVASP-104571.cif,0.0,0.0,mBJ,0.0,0.21172,,Fm-3m
JVASP-2349,KLiTe,FAILED_JVASP-2349.cif,2.649,3.889,mBJ,1.24,-1.17298,,P4/nmm
JVASP-102766,ErSiPd,FAILED_JVASP-102766.cif,0.0,0.0,mBJ,0.0,-0.92514,,C2/m
JVASP-106548,LiAlZn2,FAILED_JVASP-106548.cif,0.0,0.0,mBJ,0.0,-0.18677,,Fm-3m
JVASP-102455,AgPd,FAILED_JVASP-102455.cif,0.0,0.0,mBJ,0.0,-0.06351,,P-6m2
JVASP-2065,CaI2,FAILED_JVASP-2065.cif,3.446,4.63,HSE,1.184,-1.71628,,P-3m1
JVASP-105494,HfZn2Ga,FAILED_JVASP-105494.cif,0.0,0.0,mBJ,0.0,-0.34557,,P4/mmm
JVASP-50484,CaY2O4,FAILED_JVASP-50484.cif,3.194,4.45,mBJ,1.256,-3.62771,,Cmcm
JVASP-57228,Sr2Mn3Bi2O2,FAILED_JVASP-57228.cif,0.0,0.0,mBJ,0.0,-1.03099,,I4/mmm
JVASP-101574,Li2InPb,FAILED_JVASP-101574.cif,0.0,0.0,mBJ,0.0,-0.32833,,Fm-3m
JVASP-14993,TbAs,FAILED_JVASP-14993.cif,0.0,0.0,mBJ,0.0,-1.59292,,Fm-3m
JVASP-101259,NaMnO2,FAILED_JVASP-101259.cif,0.0,0.0,mBJ,0.0,-1.78449,,I4_1/amd
JVASP-102707,MoSeS,FAILED_JVASP-102707.cif,0.712,0.92,mBJ,0.208,-0.81167,,P-3m1
JVASP-3468,ZnIn2Te4,FAILED_JVASP-3468.cif,0.771,1.774,mBJ,1.003,-0.36001,,I-4
JVASP-16131,HoCoC2,FAILED_JVASP-16131.cif,0.0,0.0,mBJ,0.0,-0.44182,,Amm2
JVASP-102558,SmPd2Pb,FAILED_JVASP-102558.cif,0.0,0.0,mBJ,0.0,-0.68828,,Fm-3m
JVASP-104725,LiMgIn2,FAILED_JVASP-104725.cif,0.0,0.0,mBJ,0.0,-0.11998,,F-43m
JVASP-50380,ZrSeO,FAILED_JVASP-50380.cif,0.796,1.037,mBJ,0.241,-2.52293,,P4/nmm
JVASP-105198,Mg2As,FAILED_JVASP-105198.cif,0.0,0.0,mBJ,0.0,-0.42958,,Immm
JVASP-14610,Mo,FAILED_JVASP-14610.cif,0.0,0.0,mBJ,0.0,0.0,,Im-3m
JVASP-106497,CaMgCd2,FAILED_JVASP-106497.cif,0.0,0.0,mBJ,0.0,-0.33598,,Fm-3m
JVASP-103580,Te,FAILED_JVASP-103580.cif,0.0,0.0,mBJ,0.0,0.02841,,Pm-3m
JVASP-1786,SmCuO2,FAILED_JVASP-1786.cif,2.587,2.8,mBJ,0.213,-2.48686,,R-3m
JVASP-106601,Sn3Te,FAILED_JVASP-106601.cif,0.0,0.0,mBJ,0.0,0.06571,,Pm-3m
JVASP-15031,TbSb,FAILED_JVASP-15031.cif,0.0,0.0,mBJ,0.0,-1.1903,,Fm-3m
JVASP-14725,U,FAILED_JVASP-14725.cif,0.0,0.0,mBJ,0.0,-0.0,,Cmcm
JVASP-101034,Ti3In,FAILED_JVASP-101034.cif,0.0,0.0,mBJ,0.0,-0.12384,,Pm-3m
JVASP-102516,LiTm2Ga,FAILED_JVASP-102516.cif,0.0,0.0,mBJ,0.0,-0.32703,,Fm-3m
JVASP-101575,Li2SmAl,FAILED_JVASP-101575.cif,0.0,0.0,mBJ,0.0,-0.24368,,Fm-3m
JVASP-50968,TmCu2O4,FAILED_JVASP-50968.cif,0.0,0.0,mBJ,0.0,-1.90124,,I4_1/a
JVASP-106456,Rb2LiPrF6,FAILED_JVASP-106456.cif,6.758,8.853,mBJ,2.095,-3.46962,,Fm-3m
JVASP-14683,ErSi,FAILED_JVASP-14683.cif,0.0,0.0,mBJ,0.0,-0.79872,,Cmcm
JVASP-16107,CrSi2,FAILED_JVASP-16107.cif,0.0,0.0,mBJ,0.0,-0.20781,,I4/mmm
JVASP-105013,Na2ScAgF6,FAILED_JVASP-105013.cif,1.87,4.418,mBJ,2.548,-2.87427,,Fm-3m
JVASP-107002,TbSbPd,FAILED_JVASP-107002.cif,0.0,0.0,mBJ,0.0,-1.0765,,P6_3mc
JVASP-102607,YAgGe,FAILED_JVASP-102607.cif,0.0,0.0,mBJ,0.0,-0.71227,,P-62m
JVASP-102272,AlRh3,FAILED_JVASP-102272.cif,0.0,0.0,mBJ,0.0,-0.47786,,P6_3/mmc
JVASP-2068,MgBr2,FAILED_JVASP-2068.cif,4.478,5.48,HSE,1.002,-1.59558,,P-3m1
JVASP-15716,Ti,FAILED_JVASP-15716.cif,0.0,0.0,mBJ,0.0,0.06514,,Fm-3m
JVASP-3993,Sc2CCl2,FAILED_JVASP-3993.cif,0.86,1.421,mBJ,0.561,-1.68234,,P-3m1
JVASP-102768,Er2SbO2,FAILED_JVASP-102768.cif,0.0,0.0,mBJ,0.0,-2.93245,,I4/mmm