material_id,formula,cif_path,pbe_bandgap,hse_bandgap,gap_type,correction,formation_energy,total_energy,spacegroup
JVASP-64419,Ba4ZrSe,FAILED_JVASP-64419.cif,0.0,0.0,mBJ,0.0,0.4636,,F-43m
JVASP-12163,CaPbI4,FAILED_JVASP-12163.cif,2.899,3.749,mBJ,0.85,-1.18747,,P2/m
JVASP-43766,Li2FeF6,FAILED_JVASP-43766.cif,0.0,0.0,mBJ,0.0,-2.54401,,P-31m
JVASP-85672,VH6O3F3,FAILED_JVASP-85672.cif,1.615,1.883,mBJ,0.268,-0.79747,,P1
JVASP-4918,K3VO4,FAILED_JVASP-4918.cif,3.647,4.114,mBJ,0.467,-2.31381,,I-42m
JVASP-64650,Ba4TiBi,FAILED_JVASP-64650.cif,0.0,0.0,mBJ,0.0,0.56766,,F-43m
JVASP-65182,BeCo4Hg,FAILED_JVASP-65182.cif,0.0,0.0,mBJ,0.0,0.4454,,F-43m
JVASP-64303,Be2FeRu,FAILED_JVASP-64303.cif,0.0,0.0,mBJ,0.0,-0.16885,,Fm-3m
JVASP-64366,Ba4YSc,FAILED_JVASP-64366.cif,0.0,0.0,mBJ,0.0,0.59703,,F-43m
JVASP-64970,BeVNi4,FAILED_JVASP-64970.cif,0.0,0.0,mBJ,0.0,0.03572,,F-43m
JVASP-97402,CuHgSI,FAILED_JVASP-97402.cif,0.377,0.631,mBJ,0.254,-0.16219,,Pna2_1
JVASP-91706,CeCuTeO,FAILED_JVASP-91706.cif,0.0,0.0,mBJ,0.0,-1.88298,,P4/nmm
JVASP-64852,Ba2NaTa,FAILED_JVASP-64852.cif,0.0,0.0,mBJ,0.0,0.88458,,Fm-3m
JVASP-64578,Ba4YP,FAILED_JVASP-64578.cif,0.0,0.0,mBJ,0.0,0.51564,,F-43m
JVASP-87116,CaAlF5,FAILED_JVASP-87116.cif,7.485,10.53,mBJ,3.045,-3.92567,,C2/c
JVASP-3333,Tb2TeO2,FAILED_JVASP-3333.cif,1.352,2.068,mBJ,0.716,-3.15494,,I4/mmm
JVASP-64420,Ba4NaTc,FAILED_JVASP-64420.cif,0.0,0.0,mBJ,0.0,1.08815,,F-43m
JVASP-22624,Rb2NiF4,FAILED_JVASP-22624.cif,0.0,0.0,mBJ,0.0,-2.43414,,I4/mmm
JVASP-12110,HfNCl,FAILED_JVASP-12110.cif,2.212,3.022,mBJ,0.81,-2.01821,,R-3m
JVASP-3834,K2PtBr6,FAILED_JVASP-3834.cif,1.113,1.897,mBJ,0.784,-1.05199,,Fm-3m
JVASP-44101,Fe6O7F5,FAILED_JVASP-44101.cif,0.0,0.0,mBJ,0.0,-1.65561,,P1
JVASP-64891,Be2InPd,FAILED_JVASP-64891.cif,0.0,0.0,mBJ,0.0,0.01885,,I-4m2
JVASP-64712,Ba4YCu,FAILED_JVASP-64712.cif,0.0,0.0,mBJ,0.0,0.70177,,F-43m
JVASP-65143,TaBeFe4,FAILED_JVASP-65143.cif,0.0,0.0,mBJ,0.0,-0.07224,,F-43m
JVASP-86108,K2NbCl6,FAILED_JVASP-86108.cif,0.0,0.0,mBJ,0.0,-1.68825,,P4/mnc
JVASP-85570,Hg2ClO,FAILED_JVASP-85570.cif,1.798,2.613,mBJ,0.815,-0.28077,,P-1
JVASP-14623,Tm,FAILED_JVASP-14623.cif,0.0,0.0,mBJ,0.0,0.0,,P6_3/mmc
JVASP-86910,LiSi,FAILED_JVASP-86910.cif,0.161,0.471,mBJ,0.31,-0.06465,,I4_1/a
JVASP-42237,Mn6O7F5,FAILED_JVASP-42237.cif,0.0,0.0,mBJ,0.0,-2.05933,,C2
JVASP-5167,BiRh,FAILED_JVASP-5167.cif,0.0,0.0,mBJ,0.0,0.16843,,P6_3/mmc
JVASP-64421,Ba4MgNb,FAILED_JVASP-64421.cif,0.0,0.0,mBJ,0.0,0.90407,,F-43m
JVASP-64579,Ba4BeCo,FAILED_JVASP-64579.cif,0.0,0.0,mBJ,0.0,1.25746,,F-43m
JVASP-64855,Ba4HfBi,FAILED_JVASP-64855.cif,0.0,0.0,mBJ,0.0,0.54783,,F-43m
JVASP-1696,BaLiAs,FAILED_JVASP-1696.cif,0.659,1.37,mBJ,0.711,-1.03368,,P-6m2
JVASP-3180,KAuF6,FAILED_JVASP-3180.cif,2.003,2.143,mBJ,0.14,-1.60169,,R-3m
JVASP-64367,Ba4ZrZn,FAILED_JVASP-64367.cif,0.0,0.0,mBJ,0.0,0.79657,,F-43m
JVASP-97358,YCI,FAILED_JVASP-97358.cif,0.0,0.0,mBJ,0.0,-0.9984,,C2/m
JVASP-42256,NbVO4,FAILED_JVASP-42256.cif,0.0,0.0,mBJ,0.0,-2.56836,,I-4m2
JVASP-91802,TlSe,FAILED_JVASP-91802.cif,0.257,0.744,mBJ,0.487,-0.27994,,I4/mcm
JVASP-65130,BeNbCd,FAILED_JVASP-65130.cif,0.0,0.0,mBJ,0.0,0.14811,,I4mm
JVASP-64931,Be2NbPt,FAILED_JVASP-64931.cif,0.0,0.0,mBJ,0.0,-0.21633,,I-4m2
JVASP-65294,BeCoBi4,FAILED_JVASP-65294.cif,0.0,0.0,mBJ,0.0,1.18152,,F-43m
JVASP-91571,TbHO2,FAILED_JVASP-91571.cif,4.149,6.224,mBJ,2.075,-2.8093,,P2_1/m
JVASP-18401,MnH,FAILED_JVASP-18401.cif,0.0,0.0,mBJ,0.0,0.29366,,P6_3/mmc
JVASP-64310,BaYBr,FAILED_JVASP-64310.cif,0.0,0.0,mBJ,0.0,0.19033,,F-43m
JVASP-52561,LiAgF2,FAILED_JVASP-52561.cif,1.182,3.315,mBJ,2.133,-2.07242,,Pnma
JVASP-48815,Fe4O5F3,FAILED_JVASP-48815.cif,0.0,0.0,mBJ,0.0,-1.61341,,Cm
JVASP-64580,Ba4ZnCu,FAILED_JVASP-64580.cif,0.0,0.0,mBJ,0.0,0.64059,,F-43m
JVASP-22518,RbPS3,FAILED_JVASP-22518.cif,1.7,2.581,mBJ,0.881,-0.75176,,Immm
JVASP-64369,Ba4YSe,FAILED_JVASP-64369.cif,0.0,0.0,mBJ,0.0,0.25166,,F-43m
JVASP-4921,TiFeO3,FAILED_JVASP-4921.cif,0.0,0.0,mBJ,0.0,-2.27259,,Cmcm
JVASP-31809,CoSiH12O6F6,FAILED_JVASP-31809.cif,0.0,0.507,mBJ,0.507,-1.54298,,R-3
JVASP-23438,RbGaO2,FAILED_JVASP-23438.cif,2.755,4.549,mBJ,1.794,-1.85487,,Fd-3m
JVASP-61470,AlF3,FAILED_JVASP-61470.cif,8.271,11.029,mBJ,2.758,-3.75527,,R-3c
JVASP-107759,GaCuTe2,FAILED_JVASP-107759.cif,0.0,0.0,mBJ,0.0,-0.2294,,R3m
JVASP-86789,K2SnHgSe4,FAILED_JVASP-86789.cif,1.472,2.401,mBJ,0.929,-0.73675,,I-42m
JVASP-64972,BeNi4Os,FAILED_JVASP-64972.cif,0.0,0.0,mBJ,0.0,0.26445,,F-43m
JVASP-48114,CoOF,FAILED_JVASP-48114.cif,0.0,0.0,mBJ,0.0,-1.44428,,P4_12_12
JVASP-64715,Ba4MoCl,FAILED_JVASP-64715.cif,0.0,0.0,mBJ,0.0,0.85392,,F-43m
JVASP-64311,Ba4ScP,FAILED_JVASP-64311.cif,0.0,0.0,mBJ,0.0,0.57072,,F-43m
JVASP-61193,HoAu,FAILED_JVASP-61193.cif,0.0,0.0,mBJ,0.0,-0.96118,,Cmcm
JVASP-5170,MnBi,FAILED_JVASP-5170.cif,0.0,0.0,mBJ,0.0,0.52785,,P6_3/mmc
JVASP-42321,LiMnF4,FAILED_JVASP-42321.cif,0.0,0.0,mBJ,0.0,-2.7333,,Pnma
JVASP-64663,Ba4ZrBe,FAILED_JVASP-64663.cif,0.0,0.0,mBJ,0.0,1.12755,,F-43m
JVASP-85799,HI,FAILED_JVASP-85799.cif,3.222,4.052,mBJ,0.83,0.06448,,C2/c
JVASP-64375,Ba4CaTa,FAILED_JVASP-64375.cif,0.0,0.0,mBJ,0.0,0.9739,,F-43m
JVASP-64932,BeFe4Si,FAILED_JVASP-64932.cif,0.0,0.0,mBJ,0.0,0.23319,,F-43m
JVASP-60874,Na4CuAs2O8,FAILED_JVASP-60874.cif,0.829,0.888,mBJ,0.059,-1.60401,,P-1
JVASP-44105,Tm3TaO7,FAILED_JVASP-44105.cif,3.431,4.488,mBJ,1.057,-3.67934,,Cmcm
JVASP-64581,Ba4ZrCd,FAILED_JVASP-64581.cif,0.0,0.0,mBJ,0.0,0.69462,,F-43m
JVASP-3336,Dy2TeO2,FAILED_JVASP-3336.cif,1.277,2.023,mBJ,0.746,-3.1606,,I4/mmm
JVASP-3492,RbInTe2,FAILED_JVASP-3492.cif,1.203,1.829,mBJ,0.626,-0.75723,,I4/mcm
JVASP-38244,Rb3In,FAILED_JVASP-38244.cif,0.0,0.0,mBJ,0.0,0.01133,,Fm-3m
JVASP-47982,Li3FeCo3O8,FAILED_JVASP-47982.cif,0.0,0.0,mBJ,0.0,-1.61134,,C2/m
JVASP-14624,Ho,FAILED_JVASP-14624.cif,0.0,0.0,mBJ,0.0,0.0086,,P6_3/mmc
JVASP-64859,Ba4PbBr,FAILED_JVASP-64859.cif,0.0,0.0,mBJ,0.0,-0.148,,F-43m
JVASP-64312,KBa4Re,FAILED_JVASP-64312.cif,0.0,0.0,mBJ,0.0,1.25109,,F-43m
JVASP-43535,Na5CoO4,FAILED_JVASP-43535.cif,0.097,0.46,mBJ,0.363,-1.41788,,Pmn2_1
JVASP-42551,Ni3O4,FAILED_JVASP-42551.cif,0.0,0.0,mBJ,0.0,-0.84784,,C2/m
JVASP-65260,MgZrBe,FAILED_JVASP-65260.cif,0.0,0.0,mBJ,0.0,0.05226,,I4mm
JVASP-5521,SCl2O2,FAILED_JVASP-5521.cif,3.686,4.873,mBJ,1.187,-0.69625,,Fdd2
JVASP-107760,GaAgSeS,FAILED_JVASP-107760.cif,0.559,1.675,mBJ,1.116,-0.49483,,I2_12_12_1
JVASP-64376,Ba4MgV,FAILED_JVASP-64376.cif,0.0,0.0,mBJ,0.0,1.04514,,F-43m
JVASP-65147,BeVRh4,FAILED_JVASP-65147.cif,0.0,0.0,mBJ,0.0,0.26352,,F-43m
JVASP-91755,KNa3H4,FAILED_JVASP-91755.cif,3.121,5.72,mBJ,2.599,-0.25715,,Pm-3m
JVASP-43542,Li3YNi2O6,FAILED_JVASP-43542.cif,0.0,0.0,mBJ,0.0,-1.96232,,C2/m
JVASP-22625,SO3,FAILED_JVASP-22625.cif,5.354,6.933,mBJ,1.579,-1.04816,,P2_1/c
JVASP-97362,GeBi12O20,FAILED_JVASP-97362.cif,2.395,3.244,mBJ,0.849,-1.42296,,I23
JVASP-97696,K3BiSe3,FAILED_JVASP-97696.cif,1.965,2.525,mBJ,0.56,-1.05549,,P2_13
JVASP-86740,CaAgBi,FAILED_JVASP-86740.cif,0.029,0.163,mBJ,0.134,-0.61158,,P6_3mc
JVASP-3837,InClO,FAILED_JVASP-3837.cif,2.416,3.959,mBJ,1.543,-1.45602,,Pmmn
JVASP-64718,Ba4YBe,FAILED_JVASP-64718.cif,0.0,0.0,mBJ,0.0,0.84741,,F-43m
JVASP-90721,ThCuPO,FAILED_JVASP-90721.cif,0.0,0.0,mBJ,0.0,-2.12236,,P4/nmm
JVASP-64973,MnBe2Sn,FAILED_JVASP-64973.cif,0.0,0.0,mBJ,0.0,0.23357,,I-4m2
JVASP-65097,BeGaCl4,FAILED_JVASP-65097.cif,0.0,0.0,mBJ,0.0,0.54182,,F-43m
JVASP-62215,Ca4Al6SO12,FAILED_JVASP-62215.cif,3.808,6.33,mBJ,2.522,-3.23192,,I-43m
JVASP-90865,BaMgC2O4,FAILED_JVASP-90865.cif,1.281,3.17,mBJ,1.889,-1.7522,,C2/m
JVASP-64313,Ba4VBr,FAILED_JVASP-64313.cif,0.0,0.0,mBJ,0.0,0.74653,,F-43m
JVASP-52566,TiGa2O5,FAILED_JVASP-52566.cif,2.243,2.79,mBJ,0.547,-2.40821,,C2/c
JVASP-64934,BeVCo4,FAILED_JVASP-64934.cif,0.0,0.0,mBJ,0.0,0.05726,,F-43m
JVASP-3183,SrCuSF,FAILED_JVASP-3183.cif,1.774,2.815,mBJ,1.041,-2.23796,,P4/nmm
JVASP-22519,CrMoF6,FAILED_JVASP-22519.cif,0.0,0.0,mBJ,0.0,-2.29189,,R-3
JVASP-4924,CoO,FAILED_JVASP-4924.cif,0.0,0.0,mBJ,0.0,-0.66645,,R-3m
JVASP-61992,VAu4,FAILED_JVASP-61992.cif,0.0,0.0,mBJ,0.0,-0.00048,,I4/m
JVASP-86687,Ca3N2,FAILED_JVASP-86687.cif,1.733,3.019,mBJ,1.286,-0.99465,,C2/m
JVASP-65221,BeGaBr4,FAILED_JVASP-65221.cif,0.0,0.0,mBJ,0.0,0.63491,,F-43m
JVASP-42450,LiV2O3F3,FAILED_JVASP-42450.cif,0.0,0.0,mBJ,0.0,-2.73278,,P1
JVASP-15834,BiS2,FAILED_JVASP-15834.cif,0.0,0.0,mBJ,0.0,-0.07318,,C2
JVASP-85675,Na3MgP2HO8,FAILED_JVASP-85675.cif,5.301,7.993,mBJ,2.692,-2.37618,,P-1
JVASP-22563,Na2CN2,FAILED_JVASP-22563.cif,3.375,5.771,mBJ,2.396,-0.57951,,C2/m
JVASP-65009,BeNbBi4,FAILED_JVASP-65009.cif,0.0,0.0,mBJ,0.0,1.18361,,F-43m
JVASP-3402,Sm3InN,FAILED_JVASP-3402.cif,0.0,0.0,mBJ,0.0,-1.00047,,Pm-3m
JVASP-20086,Mo3Ir,FAILED_JVASP-20086.cif,0.0,0.0,mBJ,0.0,-0.10051,,Pm-3n
JVASP-65148,BeCrP,FAILED_JVASP-65148.cif,0.0,0.0,mBJ,0.0,-0.20434,,I4mm
JVASP-85573,VO2,FAILED_JVASP-85573.cif,0.1,0.093,mBJ,-0.007,-2.36793,,P-1
JVASP-23439,TeO3,FAILED_JVASP-23439.cif,1.376,2.187,mBJ,0.811,-0.84544,,Pnna
JVASP-36936,CuAgF3,FAILED_JVASP-36936.cif,0.0,0.0,mBJ,0.0,-1.41199,,R-3c
JVASP-65265,BeVPb4,FAILED_JVASP-65265.cif,0.0,0.0,mBJ,0.0,1.20581,,F-43m
JVASP-64936,HfBeCo4,FAILED_JVASP-64936.cif,0.0,0.0,mBJ,0.0,-0.16721,,F-43m
JVASP-64895,Be2FeMo,FAILED_JVASP-64895.cif,0.0,0.0,mBJ,0.0,-0.10756,,F-43m
JVASP-89307,EuClO,FAILED_JVASP-89307.cif,4.952,6.146,mBJ,1.194,-3.29812,,P4/nmm
JVASP-86860,TeI,FAILED_JVASP-86860.cif,0.732,1.334,mBJ,0.602,-0.06974,,C2/m
JVASP-62003,DyAlAu,FAILED_JVASP-62003.cif,0.0,0.0,mBJ,0.0,-0.83907,,Pnma
JVASP-42817,Li8CoO5F,FAILED_JVASP-42817.cif,0.0,0.015,mBJ,0.015,-2.00526,,P1
JVASP-54353,RuN2,FAILED_JVASP-54353.cif,0.0,0.0,mBJ,0.0,0.22177,,Pnnm
JVASP-16045,Pr3GaC,FAILED_JVASP-16045.cif,0.0,0.0,mBJ,0.0,1.18099,,Pm-3m
JVASP-15221,NbNi2Sn,FAILED_JVASP-15221.cif,0.0,0.0,mBJ,0.0,-0.18503,,Fm-3m
JVASP-86109,Th2Ga,FAILED_JVASP-86109.cif,0.0,0.0,mBJ,0.0,-0.37321,,I4/mcm
JVASP-65222,BeTeIr4,FAILED_JVASP-65222.cif,0.0,0.0,mBJ,0.0,0.6963,,F-43m
JVASP-3840,InBrO,FAILED_JVASP-3840.cif,2.06,3.732,mBJ,1.672,-1.3267,,Pmmn
JVASP-42552,Mn6O7F5,FAILED_JVASP-42552.cif,0.0,0.0,mBJ,0.0,-2.03362,,P1
JVASP-86453,CuRh2O4,FAILED_JVASP-86453.cif,0.0,0.0,mBJ,0.0,-0.84187,,Fd-3m
JVASP-18657,Ti2Cd,FAILED_JVASP-18657.cif,0.0,0.0,mBJ,0.0,-0.07398,,I4/mmm
JVASP-14999,NbS2,FAILED_JVASP-14999.cif,0.0,0.94,mBJ,0.94,-1.032,,Fmm2
JVASP-42240,LiMnSiO4,FAILED_JVASP-42240.cif,0.0,0.0,mBJ,0.0,-2.3534,,Imma
JVASP-62413,AuCS2Cl3,FAILED_JVASP-62413.cif,1.838,2.285,mBJ,0.447,-0.08912,,C2/c
JVASP-62221,Na4BeAlSi4ClO12,FAILED_JVASP-62221.cif,4.766,7.651,mBJ,2.885,-2.76184,,I-4
JVASP-22589,KVF3,FAILED_JVASP-22589.cif,0.0,0.0,mBJ,0.0,-2.55884,,Pm-3m
JVASP-65150,K4BeRh,FAILED_JVASP-65150.cif,0.0,0.0,mBJ,0.0,1.0268,,F-43m
JVASP-65010,BeVP4,FAILED_JVASP-65010.cif,0.0,0.0,mBJ,0.0,0.81289,,F-43m
JVASP-48403,V4O7F5,FAILED_JVASP-48403.cif,0.135,2.269,mBJ,2.134,-2.6119,,P1
JVASP-5524,SCl2O,FAILED_JVASP-5524.cif,3.435,4.818,mBJ,1.383,-0.57943,,P2_1/c
JVASP-65057,Mg4TiBe,FAILED_JVASP-65057.cif,0.0,0.0,mBJ,0.0,0.6149,,F-43m
JVASP-64975,BeGeS2,FAILED_JVASP-64975.cif,0.0,0.0,mBJ,0.0,0.27489,,Fm-3m
JVASP-60893,K2NaAlP2,FAILED_JVASP-60893.cif,1.712,2.861,mBJ,1.149,-0.6792,,Ibam
JVASP-97659,LiB13C2,FAILED_JVASP-97659.cif,2.747,3.092,mBJ,0.345,-0.20398,,Ima2
JVASP-85723,K2MgMo2H4O10,FAILED_JVASP-85723.cif,3.42,4.004,mBJ,0.584,-1.9487,,P-1
JVASP-65267,BeFeBi4,FAILED_JVASP-65267.cif,0.0,0.0,mBJ,0.0,1.38188,,F-43m
JVASP-61252,CdAs2O6,FAILED_JVASP-61252.cif,2.121,3.699,mBJ,1.578,-1.32126,,P-31m
JVASP-62006,LaCo2B2,FAILED_JVASP-62006.cif,0.0,0.0,mBJ,0.0,-0.51651,,I4/mmm
JVASP-86791,RbCdAg3C6N6,FAILED_JVASP-86791.cif,2.527,3.225,mBJ,0.698,0.21184,,P312
JVASP-14625,Cr,FAILED_JVASP-14625.cif,0.0,0.0,mBJ,0.0,0.06567,,Pm-3n
JVASP-87925,Sb2PbO6,FAILED_JVASP-87925.cif,2.147,2.94,mBJ,0.793,-1.51863,,P-31m
JVASP-47983,Li2Fe2CoO6,FAILED_JVASP-47983.cif,0.0,0.0,mBJ,0.0,-1.64224,,C2/m
JVASP-86612,KEuSiS4,FAILED_JVASP-86612.cif,2.77,3.643,mBJ,0.873,-1.54616,,P2_1
JVASP-87060,Li3LaP2,FAILED_JVASP-87060.cif,0.502,0.98,mBJ,0.478,-1.1054,,P-3m1
JVASP-5173,PbI2,FAILED_JVASP-5173.cif,2.242,3.133,mBJ,0.891,-0.66023,,P-3m1
JVASP-15433,NdGe2Pd2,FAILED_JVASP-15433.cif,0.0,0.0,mBJ,0.0,-0.80595,,I4/mmm
JVASP-65224,Ca4BeZn,FAILED_JVASP-65224.cif,0.0,0.0,mBJ,0.0,0.70287,,F-43m
JVASP-64898,MnBe2Nb,FAILED_JVASP-64898.cif,0.0,0.0,mBJ,0.0,0.10296,,I-4m2
JVASP-14587,Hf,FAILED_JVASP-14587.cif,0.0,0.0,mBJ,0.0,0.17424,,Im-3m
JVASP-65373,BaSc2Ta,FAILED_JVASP-65373.cif,0.0,0.0,mBJ,0.0,0.46709,,Pmm2
JVASP-61703,Na4BeAlSi4ClO12,FAILED_JVASP-61703.cif,4.766,7.651,mBJ,2.885,-2.76184,,I-4
JVASP-22590,HgO2,FAILED_JVASP-22590.cif,0.318,1.889,mBJ,1.571,0.07369,,Pbca
JVASP-97835,NaP5,FAILED_JVASP-97835.cif,1.298,1.816,mBJ,0.518,-0.22118,,Pnma
JVASP-92163,Ca3Zn,FAILED_JVASP-92163.cif,0.0,0.0,mBJ,0.0,-0.05483,,P6_3/mmc
JVASP-62895,Na3Sc2B3O9,FAILED_JVASP-62895.cif,3.678,5.229,mBJ,1.551,-2.82696,,R-3c
JVASP-48666,Li2VF6,FAILED_JVASP-48666.cif,0.173,3.904,mBJ,3.731,-3.04234,,C2/m
JVASP-12164,YBr3,FAILED_JVASP-12164.cif,3.59,4.319,mBJ,0.729,-1.96405,,C2/m
JVASP-42241,Li3Mn2Cr2O8,FAILED_JVASP-42241.cif,0.0,0.0,mBJ,0.0,-2.0913,,C2/m
JVASP-64939,BeTlRe4,FAILED_JVASP-64939.cif,0.0,0.0,mBJ,0.0,0.9042,,F-43m
JVASP-42740,Li3CrO4,FAILED_JVASP-42740.cif,0.0,0.0,mBJ,0.0,-2.2359,,I-42m
JVASP-62735,CaBHO3,FAILED_JVASP-62735.cif,5.298,7.59,mBJ,2.292,-2.56391,,P2_1/c
JVASP-3537,TeRhCl,FAILED_JVASP-3537.cif,0.723,0.896,mBJ,0.173,-0.52915,,C2/m
JVASP-85301,KC4N3,FAILED_JVASP-85301.cif,3.752,4.58,mBJ,0.828,0.06501,,P-1
JVASP-3843,KTlO,FAILED_JVASP-3843.cif,1.5,2.582,mBJ,1.082,-1.12445,,C2/m
JVASP-65225,Sr4BeV,FAILED_JVASP-65225.cif,0.0,0.0,mBJ,0.0,1.35699,,F-43m
JVASP-4406,ScSi2,FAILED_JVASP-4406.cif,0.0,0.0,mBJ,0.0,-0.31425,,P6/mmm
JVASP-48321,LiV3O8,FAILED_JVASP-48321.cif,1.142,1.4,mBJ,0.258,-2.38768,,C2
JVASP-90640,ZrCrF6,FAILED_JVASP-90640.cif,0.0,0.0,mBJ,0.0,-3.25578,,Fm-3m
JVASP-85381,K4CO4,FAILED_JVASP-85381.cif,3.206,6.266,mBJ,3.06,-1.51253,,Cm
JVASP-85937,CrFeBi2O6,FAILED_JVASP-85937.cif,0.0,0.0,mBJ,0.0,-1.51591,,R3
JVASP-15000,AlFe,FAILED_JVASP-15000.cif,0.0,0.0,mBJ,0.0,-0.35768,,Pm-3m
JVASP-62415,CaB2H8,FAILED_JVASP-62415.cif,5.023,6.958,mBJ,1.935,-0.36037,,I-42d
JVASP-60910,K3Ge4Au,FAILED_JVASP-60910.cif,0.795,1.162,mBJ,0.367,-0.3207,,Pmmn
JVASP-65303,TaBePb4,FAILED_JVASP-65303.cif,0.0,0.0,mBJ,0.0,1.24994,,F-43m
JVASP-14626,Tb,FAILED_JVASP-14626.cif,0.0,0.0,mBJ,0.0,0.01596,,P6_3/mmc
JVASP-65376,BaSrHf2,FAILED_JVASP-65376.cif,0.0,0.0,mBJ,0.0,0.80399,,P4/mmm
JVASP-86165,OsN2,FAILED_JVASP-86165.cif,0.0,0.0,mBJ,0.0,0.39292,,P2_1/c
JVASP-62899,K2BC3N3,FAILED_JVASP-62899.cif,2.439,3.011,mBJ,0.572,-0.32503,,Fdd2
JVASP-97836,Ho3TaO7,FAILED_JVASP-97836.cif,3.445,4.555,mBJ,1.11,-3.69048,,C222_1
JVASP-64899,Be2SnHg,FAILED_JVASP-64899.cif,0.0,0.0,mBJ,0.0,0.71975,,I-4m2
JVASP-91532,LiIn2CuSe4,FAILED_JVASP-91532.cif,0.457,1.231,mBJ,0.774,-0.65818,,I-4
JVASP-42554,V4O7F5,FAILED_JVASP-42554.cif,0.074,2.043,mBJ,1.969,-2.58012,,P2
JVASP-91757,SrAgSF,FAILED_JVASP-91757.cif,1.361,2.772,mBJ,1.411,-2.19342,,P4/nmm
JVASP-98414,Mg7TiH16,FAILED_JVASP-98414.cif,0.0,0.357,mBJ,0.357,-0.22603,,Fm-3m
JVASP-90247,TiO2,FAILED_JVASP-90247.cif,0.951,1.461,mBJ,0.51,-2.98834,,P-62m
JVASP-65269,BeNiIr4,FAILED_JVASP-65269.cif,0.0,0.0,mBJ,0.0,0.70087,,F-43m
JVASP-42821,LiFeCoO4,FAILED_JVASP-42821.cif,0.0,0.0,mBJ,0.0,-1.52806,,Imma
JVASP-61729,AlH3,FAILED_JVASP-61729.cif,3.488,5.693,mBJ,2.205,-0.07486,,Fd-3m
JVASP-50699,LiNbTe3O12,FAILED_JVASP-50699.cif,1.712,2.844,mBJ,1.132,-1.39813,,P2
JVASP-62736,CdB2H8,FAILED_JVASP-62736.cif,3.624,5.506,mBJ,1.882,0.00129,,P4_2nm
JVASP-48406,V4O7F5,FAILED_JVASP-48406.cif,0.108,2.044,mBJ,1.936,-2.58955,,P1
JVASP-49788,K4TiO4,FAILED_JVASP-49788.cif,3.486,5.255,mBJ,1.769,-2.21694,,Cmcm
JVASP-22564,AsS,FAILED_JVASP-22564.cif,1.466,14.702,mBJ,13.236,-0.15061,,C2/c
JVASP-97322,Sc2Te3,FAILED_JVASP-97322.cif,0.003,0.239,mBJ,0.236,-1.29118,,Fddd
JVASP-86110,NaAgC2N2,FAILED_JVASP-86110.cif,2.493,3.296,mBJ,0.803,-0.03798,,C2/c
JVASP-65379,BaNiP2,FAILED_JVASP-65379.cif,0.0,0.0,mBJ,0.0,-0.22332,,P4/mmm
JVASP-89319,ZnCdSe4C4N4,FAILED_JVASP-89319.cif,2.902,4.212,mBJ,1.31,0.15534,,I-4
JVASP-65226,BeCoRh,FAILED_JVASP-65226.cif,0.0,0.0,mBJ,0.0,-0.24064,,I4mm
JVASP-14758,CuAu,FAILED_JVASP-14758.cif,0.0,0.0,mBJ,0.0,-0.05108,,P4/mmm
JVASP-22591,ZnS,FAILED_JVASP-22591.cif,2.094,3.593,mBJ,1.499,-0.88633,,P3m1
JVASP-98213,SiBi12O20,FAILED_JVASP-98213.cif,2.39,3.254,mBJ,0.864,-1.52361,,I23
JVASP-21525,RbZnF3,FAILED_JVASP-21525.cif,4.372,6.745,mBJ,2.373,-2.71621,,P6_3/mmc
JVASP-65504,BaHf2Ru,FAILED_JVASP-65504.cif,0.0,0.0,mBJ,0.0,0.02221,,P4/mmm
JVASP-16936,SbO2,FAILED_JVASP-16936.cif,0.0,0.0,mBJ,0.0,-1.12883,,Fm-3m
JVASP-48669,V2OF5,FAILED_JVASP-48669.cif,0.0,0.0,mBJ,0.0,-2.92315,,C2
JVASP-14656,RhPb2,FAILED_JVASP-14656.cif,0.0,0.0,mBJ,0.0,-0.05267,,I4/mcm
JVASP-65193,BePOs,FAILED_JVASP-65193.cif,0.0,0.235,mBJ,0.235,-0.10884,,I4mm
JVASP-42242,FeOF,FAILED_JVASP-42242.cif,0.0,0.0,mBJ,0.0,-1.69343,,Ama2
JVASP-62267,TlZnAsO4,FAILED_JVASP-62267.cif,3.237,4.334,mBJ,1.097,-1.35764,,P2_1
JVASP-98415,KAlH2CO5,FAILED_JVASP-98415.cif,5.378,7.49,mBJ,2.112,-1.97116,,Cmcm
JVASP-43776,Ge2N2O,FAILED_JVASP-43776.cif,2.363,3.961,mBJ,1.598,-0.51685,,Cc
JVASP-86988,Li3P,FAILED_JVASP-86988.cif,0.901,1.283,mBJ,0.382,-0.78963,,P6_3/mmc
JVASP-42911,LiMnSbO4,FAILED_JVASP-42911.cif,0.0,0.0,mBJ,0.0,-1.67235,,Imma
JVASP-22704,Ca3CdO4,FAILED_JVASP-22704.cif,2.818,4.68,mBJ,1.862,-2.76448,,Cmmm
JVASP-97470,Si3N4,FAILED_JVASP-97470.cif,1.431,2.086,mBJ,0.655,-0.4503,,P31c
JVASP-28364,Cr3N2,FAILED_JVASP-28364.cif,0.0,0.0,mBJ,0.0,-0.33309,,C2
JVASP-92215,LiErS2,FAILED_JVASP-92215.cif,2.042,2.801,mBJ,0.759,-2.01228,,I4_1/amd
JVASP-64902,ScBeMo4,FAILED_JVASP-64902.cif,0.0,0.0,mBJ,0.0,0.38366,,F-43m
JVASP-61260,DyB2Ru,FAILED_JVASP-61260.cif,0.0,0.0,mBJ,0.0,-0.60432,,Pnma
JVASP-15637,AlVFe2,FAILED_JVASP-15637.cif,0.0,0.0,mBJ,0.0,-0.46405,,Fm-3m
JVASP-86792,Na2BeH4,FAILED_JVASP-86792.cif,4.773,7.031,mBJ,2.258,-0.32349,,P2_1/m
JVASP-14628,Be,FAILED_JVASP-14628.cif,0.0,0.0,mBJ,0.0,0.10784,,Im-3m
JVASP-15480,MnAlNi2,FAILED_JVASP-15480.cif,0.0,0.0,mBJ,0.0,-0.36932,,Fm-3m
JVASP-15001,SrSi,FAILED_JVASP-15001.cif,0.0,0.0,mBJ,0.0,-0.53478,,Cmcm
JVASP-1402,SmMg,FAILED_JVASP-1402.cif,0.0,0.0,mBJ,0.0,-0.09442,,Pm-3m
JVASP-16115,Sc3RuC4,FAILED_JVASP-16115.cif,0.0,0.0,mBJ,0.0,-0.57349,,Immm
JVASP-3846,BPS4,FAILED_JVASP-3846.cif,1.932,2.811,mBJ,0.879,-0.31169,,I222
JVASP-64941,Be2SbPt,FAILED_JVASP-64941.cif,0.0,0.0,mBJ,0.0,0.24011,,I-4m2
JVASP-65435,BaHf2Cl,FAILED_JVASP-65435.cif,0.0,0.0,mBJ,0.0,0.33769,,Pmmm
JVASP-62041,LiAlH4,FAILED_JVASP-62041.cif,4.884,6.731,mBJ,1.847,-0.24754,,P2_1/c
JVASP-14588,Ir,FAILED_JVASP-14588.cif,0.0,0.0,mBJ,0.0,0.0,,Fm-3m
JVASP-65381,BaCuP2,FAILED_JVASP-65381.cif,0.0,0.0,mBJ,0.0,-0.17531,,P4/mmm
JVASP-5347,ZrCl,FAILED_JVASP-5347.cif,0.0,0.0,mBJ,0.0,-1.35954,,R-3m
JVASP-42824,LiTiMnO4,FAILED_JVASP-42824.cif,0.0,0.0,mBJ,0.0,-2.54123,,Imma
JVASP-14057,Yb3Si5,FAILED_JVASP-14057.cif,0.0,0.0,mBJ,0.0,-0.43516,,P-62m
JVASP-87061,LiCeO2,FAILED_JVASP-87061.cif,0.0,0.0,mBJ,0.0,-2.96495,,P2_1/c
JVASP-1363,TmN,FAILED_JVASP-1363.cif,0.268,1.256,mBJ,0.988,-2.04937,,Fm-3m
JVASP-65542,BaCdW2,FAILED_JVASP-65542.cif,0.0,0.0,mBJ,0.0,1.48983,,I4/mmm
JVASP-64980,TiBeZn,FAILED_JVASP-64980.cif,0.0,0.0,mBJ,0.0,0.20676,,F-43m
JVASP-48407,Na6NiO4,FAILED_JVASP-48407.cif,0.0,0.0,mBJ,0.0,-1.25093,,P4_2/nmc
JVASP-48671,Li3Co2Si2O8,FAILED_JVASP-48671.cif,0.0,0.0,mBJ,0.0,-2.1277,,C2
JVASP-107768,Cu2NiSb,FAILED_JVASP-107768.cif,0.0,0.0,mBJ,0.0,0.16617,,Fm-3m
JVASP-65194,BeInCo4,FAILED_JVASP-65194.cif,0.0,0.0,mBJ,0.0,0.26336,,F-43m
JVASP-22592,Cu2WS4,FAILED_JVASP-22592.cif,0.901,1.696,mBJ,0.795,-0.50185,,I-42m
JVASP-65271,HfZrBe,FAILED_JVASP-65271.cif,0.0,0.0,mBJ,0.0,0.19614,,P3m1
JVASP-60915,Ca4MgB4H6C2O18,FAILED_JVASP-60915.cif,4.684,6.957,mBJ,2.273,-2.26432,,C2/m
JVASP-65155,BeVSi4,FAILED_JVASP-65155.cif,0.0,0.0,mBJ,0.0,0.56655,,F-43m
JVASP-14759,CrS,FAILED_JVASP-14759.cif,0.0,0.0,mBJ,0.0,-0.52631,,P6_3/mmc
JVASP-61264,NaFeBP2H3O10,FAILED_JVASP-61264.cif,0.008,0.307,mBJ,0.299,-1.89188,,C2/c
JVASP-62904,Cd3B2O6,FAILED_JVASP-62904.cif,1.648,3.578,mBJ,1.93,-1.85211,,Pnnm