material_id,formula,cif_path,pbe_bandgap,hse_bandgap,gap_type,correction,formation_energy,total_energy,spacegroup
JVASP-18616,Li2SbAu,FAILED_JVASP-18616.cif,0.0,0.0,mBJ,0.0,-0.54867,,F-43m
JVASP-65508,BaZrCu2,FAILED_JVASP-65508.cif,0.0,0.0,mBJ,0.0,0.21181,,P4mm
JVASP-22705,Sr4Sb2O,FAILED_JVASP-22705.cif,1.011,1.445,mBJ,0.434,-1.73606,,I4/mmm
JVASP-85302,K2SnBr6,FAILED_JVASP-85302.cif,1.568,2.661,mBJ,1.093,-1.24105,,P2_1/c
JVASP-42243,Li2VP2HO8,FAILED_JVASP-42243.cif,0.014,0.0,mBJ,-0.014,-2.29268,,P2_1
JVASP-14792,Ta2Co,FAILED_JVASP-14792.cif,0.0,0.0,mBJ,0.0,-0.26389,,I4/mcm
JVASP-28366,In2Se3,FAILED_JVASP-28366.cif,0.0,0.742,mBJ,0.742,-0.47992,,P-3m1
JVASP-97325,Na2ZnGe,FAILED_JVASP-97325.cif,0.0,0.059,mBJ,0.059,-0.22728,,Cmcm
JVASP-14847,Si,FAILED_JVASP-14847.cif,0.0,0.0,mBJ,0.0,0.16663,,Ia-3
JVASP-15435,ErMn2Si2,FAILED_JVASP-15435.cif,0.0,0.0,mBJ,0.0,-0.56408,,I4/mmm
JVASP-62434,Na4BeAlSi4ClO12,FAILED_JVASP-62434.cif,4.766,7.651,mBJ,2.885,-2.76184,,I-4
JVASP-61501,NaCaAsO4,FAILED_JVASP-61501.cif,3.762,6.013,mBJ,2.251,-2.24381,,Pnma
JVASP-62045,AuBr,FAILED_JVASP-62045.cif,1.87,2.702,mBJ,0.832,-0.06992,,I4_1/amd
JVASP-5536,Cu2SO4,FAILED_JVASP-5536.cif,1.546,1.632,mBJ,0.086,-0.94091,,Fddd
JVASP-65437,BaMoPt2,FAILED_JVASP-65437.cif,0.0,0.0,mBJ,0.0,-0.1249,,P4/mmm
JVASP-42557,Mn3O4F2,FAILED_JVASP-42557.cif,0.0,0.0,mBJ,0.0,-1.99576,,P1
JVASP-86457,La2SO2,FAILED_JVASP-86457.cif,3.096,3.598,mBJ,0.502,-3.40798,,P-3m1
JVASP-17252,CrO2,FAILED_JVASP-17252.cif,0.0,0.0,mBJ,0.0,-1.89203,,R-3m
JVASP-65230,Li4BePd,FAILED_JVASP-65230.cif,0.0,0.0,mBJ,0.0,0.08007,,F-43m
JVASP-3543,BaIF,FAILED_JVASP-3543.cif,4.038,4.994,mBJ,0.956,-3.05209,,P4/nmm
JVASP-52568,PdO2,FAILED_JVASP-52568.cif,0.0,0.0,mBJ,0.0,-0.20974,,Fm-3m
JVASP-61265,TbNi2B2,FAILED_JVASP-61265.cif,0.0,0.0,mBJ,0.0,-0.56966,,C2/c
JVASP-21527,TlAsS2,FAILED_JVASP-21527.cif,1.581,2.156,mBJ,0.575,-0.31884,,P2_1/c
JVASP-19869,PuCo2,FAILED_JVASP-19869.cif,0.0,0.0,mBJ,0.0,-0.06171,,Fd-3m
JVASP-42826,LiVGeO5,FAILED_JVASP-42826.cif,2.091,2.406,mBJ,0.315,-2.16251,,P2_1/m
JVASP-87062,ZrCoP,FAILED_JVASP-87062.cif,0.0,0.0,mBJ,0.0,-1.15273,,Pnma
JVASP-18402,MoH,FAILED_JVASP-18402.cif,0.0,0.0,mBJ,0.0,0.49191,,P6_3/mmc
JVASP-62756,BN,FAILED_JVASP-62756.cif,4.436,6.115,mBJ,1.679,-1.38422,,P6_3/mmc
JVASP-65509,BaCa2Ir,FAILED_JVASP-65509.cif,0.0,0.0,mBJ,0.0,0.04177,,P4/mmm
JVASP-86518,KCBrN2O4,FAILED_JVASP-86518.cif,2.017,2.426,mBJ,0.409,-0.43198,,P-1
JVASP-22593,K2MnF6,FAILED_JVASP-22593.cif,0.0,0.0,mBJ,0.0,-2.64679,,Fm-3m
JVASP-65383,BaIr2Pd,FAILED_JVASP-65383.cif,0.0,0.0,mBJ,0.0,0.20068,,P4mm
JVASP-62276,Mn3Al,FAILED_JVASP-62276.cif,0.0,0.0,mBJ,0.0,-0.04196,,Fm-3m
JVASP-19858,TbZn,FAILED_JVASP-19858.cif,0.0,0.0,mBJ,0.0,-0.37868,,Pm-3m
JVASP-15002,MnP,FAILED_JVASP-15002.cif,0.0,0.0,mBJ,0.0,-0.56433,,Pnma
JVASP-65545,Ba2YTi,FAILED_JVASP-65545.cif,0.0,0.0,mBJ,0.0,0.69061,,Fm-3m
JVASP-90642,KCoO2,FAILED_JVASP-90642.cif,0.0,0.0,mBJ,0.0,-1.33421,,I-4
JVASP-89320,CdHgSe4C4N4,FAILED_JVASP-89320.cif,1.982,2.97,mBJ,0.988,0.30667,,I-4
JVASP-65018,ScBeSn,FAILED_JVASP-65018.cif,0.0,0.0,mBJ,0.0,0.02229,,I4mm
JVASP-5353,AlPS4,FAILED_JVASP-5353.cif,2.48,3.395,mBJ,0.915,-0.62133,,P222
JVASP-14629,Ca,FAILED_JVASP-14629.cif,0.0,0.0,mBJ,0.0,0.01475,,Im-3m
JVASP-1405,CaO,FAILED_JVASP-1405.cif,3.742,5.29,mBJ,1.548,-3.27314,,Fm-3m
JVASP-65440,BaMo2Br,FAILED_JVASP-65440.cif,0.0,0.0,mBJ,0.0,0.96241,,Pmmm
JVASP-62906,BN,FAILED_JVASP-62906.cif,1.613,3.238,mBJ,1.625,-1.24634,,Cm
JVASP-98268,Sc3RhC4,FAILED_JVASP-98268.cif,0.0,0.0,mBJ,0.0,-0.6079,,C2/m
JVASP-3849,AuI,FAILED_JVASP-3849.cif,1.404,2.121,mBJ,0.717,-0.02297,,P4_2/ncm
JVASP-65619,BaHgW2,FAILED_JVASP-65619.cif,0.0,0.0,mBJ,0.0,1.57758,,I4/mmm
JVASP-65584,BaNa2Ge,FAILED_JVASP-65584.cif,0.0,0.0,mBJ,0.0,0.01277,,P4/mmm
JVASP-65157,ScBeFe4,FAILED_JVASP-65157.cif,0.0,0.0,mBJ,0.0,-0.05068,,F-43m
JVASP-22565,SnO,FAILED_JVASP-22565.cif,0.507,1.044,mBJ,0.537,-1.42902,,P4/nmm
JVASP-87928,EuMn2P2,FAILED_JVASP-87928.cif,0.0,0.0,mBJ,0.0,-0.84145,,P-3m1
JVASP-86921,EuTaO4,FAILED_JVASP-86921.cif,4.039,5.282,mBJ,1.243,-3.49592,,P2/c
JVASP-12165,NdIO,FAILED_JVASP-12165.cif,3.679,4.76,mBJ,1.081,-2.84381,,P4/nmm
JVASP-61768,Tb2Au,FAILED_JVASP-61768.cif,0.0,0.0,mBJ,0.0,-0.66629,,Pnma
JVASP-98484,TbMnO3,FAILED_JVASP-98484.cif,0.0,0.0,mBJ,0.0,-2.8773,,Pnma
JVASP-44617,Li2Fe3SnO8,FAILED_JVASP-44617.cif,0.0,0.0,mBJ,0.0,-1.63005,,R3m
JVASP-98606,SnSO4,FAILED_JVASP-98606.cif,3.919,4.828,mBJ,0.909,-1.46124,,Pnma
JVASP-1699,ThSbRh,FAILED_JVASP-1699.cif,0.787,0.75,mBJ,-0.037,-1.04043,,F-43m
JVASP-61272,TeAuI,FAILED_JVASP-61272.cif,0.852,1.147,mBJ,0.295,-0.09946,,P2_1/c
JVASP-85680,Rb3MgH5,FAILED_JVASP-85680.cif,3.131,4.536,mBJ,1.405,-0.33185,,I4/mcm
JVASP-65656,BaNa2Ga,FAILED_JVASP-65656.cif,0.0,0.0,mBJ,0.0,0.01572,,P4/mmm
JVASP-65309,BeIn4Mo,FAILED_JVASP-65309.cif,0.0,0.0,mBJ,0.0,0.96812,,F-43m
JVASP-52571,NaSbO3,FAILED_JVASP-52571.cif,1.844,3.22,mBJ,1.376,-1.71768,,Pnna
JVASP-22672,CsK2Sb,FAILED_JVASP-22672.cif,1.207,2.045,mBJ,0.838,-0.5317,,Fm-3m
JVASP-91668,AgClO2,FAILED_JVASP-91668.cif,0.353,2.568,mBJ,2.215,0.24216,,Cmme
JVASP-60924,K2PAuS4,FAILED_JVASP-60924.cif,1.371,2.361,mBJ,0.99,-0.84456,,P2_1/m
JVASP-28367,Mg2ZnAs2,FAILED_JVASP-28367.cif,1.092,1.737,mBJ,0.645,-0.43748,,C2/m
JVASP-65443,BaMnIn2,FAILED_JVASP-65443.cif,0.0,0.0,mBJ,0.0,-0.00902,,Pmmm
JVASP-15641,HoMn2Si2,FAILED_JVASP-15641.cif,0.0,0.0,mBJ,0.0,-0.56524,,I4/mmm
JVASP-85731,RbFeMo2O8,FAILED_JVASP-85731.cif,0.0,0.0,mBJ,0.0,-1.99882,,P-3
JVASP-47993,Mn3OF5,FAILED_JVASP-47993.cif,0.0,0.0,mBJ,0.0,-2.2935,,P-1
JVASP-16086,Hf,FAILED_JVASP-16086.cif,0.0,0.0,mBJ,0.0,0.07073,,Fm-3m
JVASP-65620,Ba2YBe,FAILED_JVASP-65620.cif,0.0,0.0,mBJ,0.0,0.59646,,Fm-3m
JVASP-90185,ThGaRh,FAILED_JVASP-90185.cif,0.0,0.0,mBJ,0.0,-0.91618,,P-62m
JVASP-43107,Li2Fe3SnO8,FAILED_JVASP-43107.cif,0.0,0.0,mBJ,0.0,-1.6847,,R-3m
JVASP-65735,BaZr4Nb,FAILED_JVASP-65735.cif,0.0,0.0,mBJ,0.0,0.65876,,F-43m
JVASP-62061,Ba3Ge2B6O16,FAILED_JVASP-62061.cif,4.241,6.189,mBJ,1.948,-2.64652,,P-1
JVASP-62909,DyB6,FAILED_JVASP-62909.cif,0.0,0.0,mBJ,0.0,-0.41596,,Pm-3m
JVASP-14590,Hf,FAILED_JVASP-14590.cif,0.0,0.0,mBJ,0.0,0.0,,P6_3/mmc
JVASP-17253,FeO2,FAILED_JVASP-17253.cif,0.0,0.0,mBJ,0.0,-1.27287,,R-3m
JVASP-65275,MnBePd,FAILED_JVASP-65275.cif,0.0,0.0,mBJ,0.0,0.13259,,P3m1
JVASP-65547,Ba2MnIn,FAILED_JVASP-65547.cif,0.0,0.0,mBJ,0.0,0.12286,,Fm-3m
JVASP-61785,SmSb2Au,FAILED_JVASP-61785.cif,0.0,0.0,mBJ,0.0,-0.69109,,P4/nmm
JVASP-65511,BaV2Os,FAILED_JVASP-65511.cif,0.0,0.0,mBJ,0.0,1.07013,,P4/mmm
JVASP-18403,H2Se,FAILED_JVASP-18403.cif,0.0,0.0,mBJ,0.0,0.83898,,Fm-3m
JVASP-86112,KNaB2H8,FAILED_JVASP-86112.cif,6.347,8.783,mBJ,2.436,-0.401,,R-3
JVASP-92166,MnSi,FAILED_JVASP-92166.cif,0.0,0.0,mBJ,0.0,-0.33168,,P2_13
JVASP-91575,BiI3,FAILED_JVASP-91575.cif,1.655,2.563,mBJ,0.908,-0.393,,Cmcm
JVASP-42156,Li4Fe3SbO8,FAILED_JVASP-42156.cif,0.0,0.0,mBJ,0.0,-1.66351,,C2/m
JVASP-62279,PAuClF3,FAILED_JVASP-62279.cif,3.251,4.443,mBJ,1.192,-1.7146,,Pnma
JVASP-1408,AlSb,FAILED_JVASP-1408.cif,1.322,1.777,mBJ,0.455,-0.24311,,F-43m
JVASP-91623,C,FAILED_JVASP-91623.cif,3.536,4.508,mBJ,0.972,0.23802,,Cmmm
JVASP-62617,UCoB4,FAILED_JVASP-62617.cif,0.0,0.0,mBJ,0.0,-0.48995,,Pbam
JVASP-61273,Li3As,FAILED_JVASP-61273.cif,0.764,1.108,mBJ,0.344,-0.78007,,P6_3/mmc
JVASP-60927,K3AsSe4,FAILED_JVASP-60927.cif,1.108,2.123,mBJ,1.015,-0.87054,,Pnma
JVASP-65447,BaMn2Ga,FAILED_JVASP-65447.cif,0.0,0.0,mBJ,0.0,0.4652,,P4/mmm
JVASP-98485,HoMnO3,FAILED_JVASP-98485.cif,0.0,0.0,mBJ,0.0,-2.88989,,Pnma
JVASP-64905,BeCo4Tc,FAILED_JVASP-64905.cif,0.0,0.0,mBJ,0.0,0.20612,,F-43m
JVASP-98274,Lu2Si5Ir3,FAILED_JVASP-98274.cif,0.0,0.0,mBJ,0.0,-0.8769,,Ibam
JVASP-65586,BaNa2Cd,FAILED_JVASP-65586.cif,0.0,0.0,mBJ,0.0,-0.04987,,P4/mmm
JVASP-65276,Mg4BeRe,FAILED_JVASP-65276.cif,0.0,0.0,mBJ,0.0,0.83492,,F-43m
JVASP-12112,ScBrO,FAILED_JVASP-12112.cif,3.222,3.647,mBJ,0.425,-2.94978,,Pmmn
JVASP-3120,TaTl3Se4,FAILED_JVASP-3120.cif,2.237,2.665,mBJ,0.428,-0.61323,,I-43m
JVASP-62066,SiB3,FAILED_JVASP-62066.cif,1.607,1.946,mBJ,0.339,-0.04228,,Imma
JVASP-65657,BaNa2Tc,FAILED_JVASP-65657.cif,0.0,0.0,mBJ,0.0,0.96791,,P4/mmm
JVASP-90130,MoPRu,FAILED_JVASP-90130.cif,0.0,0.0,mBJ,0.0,-0.4193,,P-62m
JVASP-65201,TiBeBr4,FAILED_JVASP-65201.cif,0.0,0.0,mBJ,0.0,1.02495,,F-43m
JVASP-3852,BiF5,FAILED_JVASP-3852.cif,1.589,2.296,mBJ,0.707,-1.80548,,I4/m
JVASP-12166,HoBrO,FAILED_JVASP-12166.cif,3.77,5.328,mBJ,1.558,-3.11975,,R-3m
JVASP-91535,CrCd3Te4,FAILED_JVASP-91535.cif,0.0,0.0,mBJ,0.0,-0.21962,,P-43m
JVASP-89324,LiIO3,FAILED_JVASP-89324.cif,0.024,0.015,mBJ,-0.009,-0.86839,,P6_322
JVASP-65236,Na4BeW,FAILED_JVASP-65236.cif,0.0,0.0,mBJ,0.0,1.19373,,F-43m
JVASP-18696,ErSn2,FAILED_JVASP-18696.cif,0.0,0.0,mBJ,0.0,-0.56715,,Cmcm
JVASP-62285,NaH12AuC4S4O12,FAILED_JVASP-62285.cif,2.332,2.458,mBJ,0.126,-0.71296,,P-1
JVASP-86519,KNaNdNbO5,FAILED_JVASP-86519.cif,3.473,4.412,mBJ,0.939,-2.82974,,P4/nmm
JVASP-5359,ScCl,FAILED_JVASP-5359.cif,0.0,0.0,mBJ,0.0,-1.50034,,R-3m
JVASP-65512,BaVSi2,FAILED_JVASP-65512.cif,0.0,0.0,mBJ,0.0,-0.073,,P4/mmm
JVASP-97375,Pr3RuI3,FAILED_JVASP-97375.cif,0.0,0.016,mBJ,0.016,-1.07437,,P2_1/m
JVASP-20088,HgS,FAILED_JVASP-20088.cif,0.0,0.629,mBJ,0.629,0.01627,,F-43m
JVASP-44991,FeSb4O12,FAILED_JVASP-44991.cif,0.063,0.0,mBJ,-0.063,-1.31601,,P1
JVASP-62618,BN,FAILED_JVASP-62618.cif,4.46,6.114,mBJ,1.654,-1.38441,,P6_3/mmc
JVASP-65624,Ba2CaNi,FAILED_JVASP-65624.cif,0.0,0.0,mBJ,0.0,0.32732,,Fm-3m
JVASP-65700,BaSiBi2,FAILED_JVASP-65700.cif,0.0,0.0,mBJ,0.0,-0.07105,,P4/mmm
JVASP-65587,KBaCr2,FAILED_JVASP-65587.cif,0.0,0.0,mBJ,0.0,1.09649,,P4/mmm
JVASP-86113,KNaB2H8,FAILED_JVASP-86113.cif,6.451,9.031,mBJ,2.58,-0.39508,,R3
JVASP-15349,SmSi2Pd2,FAILED_JVASP-15349.cif,0.0,0.0,mBJ,0.0,-0.89018,,I4/mmm
JVASP-90783,MgTi,FAILED_JVASP-90783.cif,0.0,0.0,mBJ,0.0,0.18806,,P-6m2
JVASP-3549,KBrO3,FAILED_JVASP-3549.cif,3.762,4.871,mBJ,1.109,-0.70727,,R3m
JVASP-42829,Li3Co4O8,FAILED_JVASP-42829.cif,0.0,0.0,mBJ,0.0,-1.57084,,R-3m
JVASP-65277,Na4ScBe,FAILED_JVASP-65277.cif,0.0,0.0,mBJ,0.0,0.64632,,F-43m
JVASP-86620,Cr2AgBiO8,FAILED_JVASP-86620.cif,1.302,1.244,mBJ,-0.058,-1.60568,,I-4
JVASP-90060,TcN2F6,FAILED_JVASP-90060.cif,0.0,0.0,mBJ,0.0,-0.45925,,C2/m
JVASP-92217,ErAgS2,FAILED_JVASP-92217.cif,0.657,1.584,mBJ,0.927,-1.42117,,I4_1/amd
JVASP-14591,Sb,FAILED_JVASP-14591.cif,0.0,0.0,mBJ,0.0,0.0,,R-3m
JVASP-15642,UBC,FAILED_JVASP-15642.cif,0.0,0.0,mBJ,0.0,-0.51442,,Cmcm
JVASP-65160,BeCo4Se,FAILED_JVASP-65160.cif,0.0,0.0,mBJ,0.0,0.44314,,F-43m
JVASP-65659,BaCa2Y,FAILED_JVASP-65659.cif,0.0,0.0,mBJ,0.0,0.09537,,P4/mmm
JVASP-14700,YbPt2,FAILED_JVASP-14700.cif,0.0,0.0,mBJ,0.0,-1.16302,,Fd-3m
JVASP-61278,AsF5,FAILED_JVASP-61278.cif,4.53,6.443,mBJ,1.913,-2.02085,,P6_3/mmc
JVASP-4741,LuPb2,FAILED_JVASP-4741.cif,0.0,0.0,mBJ,0.0,-0.13476,,I4/mmm
JVASP-91808,KAs,FAILED_JVASP-91808.cif,0.0,0.0,mBJ,0.0,-0.41121,,Pmma
JVASP-91861,Fe3N,FAILED_JVASP-91861.cif,0.0,0.0,mBJ,0.0,-0.14012,,P6_322
JVASP-85305,TiGeTe6,FAILED_JVASP-85305.cif,0.337,0.457,mBJ,0.12,-0.29204,,C2/m
JVASP-46525,ZnNi2O4,FAILED_JVASP-46525.cif,0.0,0.0,mBJ,0.0,-1.13234,,Fd-3m
JVASP-43021,MnSbO4,FAILED_JVASP-43021.cif,0.0,0.0,mBJ,0.0,-1.53739,,I-4m2
JVASP-65701,Ba2CrSb,FAILED_JVASP-65701.cif,0.0,0.0,mBJ,0.0,-0.1626,,Fm-3m
JVASP-28399,WS2,FAILED_JVASP-28399.cif,0.945,1.763,mBJ,0.818,-0.85627,,P-3m1
JVASP-18949,TbCd,FAILED_JVASP-18949.cif,0.0,0.0,mBJ,0.0,-0.34543,,Pm-3m
JVASP-15185,SrFe2P2,FAILED_JVASP-15185.cif,0.0,0.0,mBJ,0.0,-0.89605,,I4/mmm
JVASP-98349,NaSn2As2,FAILED_JVASP-98349.cif,0.0,0.0,mBJ,0.0,-0.29385,,R-3m
JVASP-65660,Ba2YCu,FAILED_JVASP-65660.cif,0.0,0.0,mBJ,0.0,0.41348,,Fm-3m
JVASP-50703,AgHg,FAILED_JVASP-50703.cif,0.0,0.0,mBJ,0.0,0.22138,,Pm-3m
JVASP-3855,RhCl3,FAILED_JVASP-3855.cif,1.481,1.666,mBJ,0.185,-0.66173,,C2/m
JVASP-335,TiTe2,FAILED_JVASP-335.cif,0.0,0.0,mBJ,0.0,-0.71943,,P-3m1
JVASP-65588,Ba2ScCr,FAILED_JVASP-65588.cif,0.0,0.0,mBJ,0.0,0.70429,,Fm-3m
JVASP-65278,Ca4BeCr,FAILED_JVASP-65278.cif,0.0,0.0,mBJ,0.0,0.9772,,F-43m
JVASP-19885,InRh,FAILED_JVASP-19885.cif,0.0,0.0,mBJ,0.0,-0.36758,,Pm-3m
JVASP-65395,BaCr2Te,FAILED_JVASP-65395.cif,0.0,0.0,mBJ,0.0,0.50846,,P4/mmm
JVASP-60941,TeAsHO5,FAILED_JVASP-60941.cif,3.165,4.833,mBJ,1.668,-1.10699,,P2_1/c
JVASP-65776,BaTiTe2,FAILED_JVASP-65776.cif,0.0,0.0,mBJ,0.0,-0.77445,,P4mm
JVASP-89921,TeN2O6,FAILED_JVASP-89921.cif,1.027,1.811,mBJ,0.784,-0.04077,,C2/m
JVASP-15134,TbNiC2,FAILED_JVASP-15134.cif,0.0,0.0,mBJ,0.0,-0.41154,,Amm2
JVASP-48117,Li2Fe3TeO8,FAILED_JVASP-48117.cif,0.0,0.0,mBJ,0.0,-1.51099,,R-3m
JVASP-86869,EuCl3,FAILED_JVASP-86869.cif,4.314,5.621,mBJ,1.307,-2.39603,,P6_3/m
JVASP-86459,SrRuO3,FAILED_JVASP-86459.cif,0.0,0.0,mBJ,0.0,-2.03441,,I4/mcm
JVASP-65702,K2BaPb,FAILED_JVASP-65702.cif,0.0,0.0,mBJ,0.0,-0.0296,,Pmmm
JVASP-50868,PrTiO3,FAILED_JVASP-50868.cif,0.0,0.0,mBJ,0.0,-3.38296,,R-3c
JVASP-3552,PbClF,FAILED_JVASP-3552.cif,3.816,5.023,mBJ,1.207,-1.92451,,P4/nmm
JVASP-68951,BaCrCl2,FAILED_JVASP-68951.cif,0.0,0.0,mBJ,0.0,-0.99871,,P4mm
JVASP-22673,BN,FAILED_JVASP-22673.cif,4.469,5.988,mBJ,1.519,-1.3844,,P-6m2
JVASP-91670,PbSe,FAILED_JVASP-91670.cif,0.76,1.165,mBJ,0.405,-0.59552,,Fm-3m
JVASP-65516,BaSc2Re,FAILED_JVASP-65516.cif,0.0,0.0,mBJ,0.0,0.08237,,P4/mmm
JVASP-92167,CuPN2,FAILED_JVASP-92167.cif,2.081,2.197,mBJ,0.116,-0.21264,,I-42d
JVASP-65550,Ba2CrIn,FAILED_JVASP-65550.cif,0.0,0.0,mBJ,0.0,0.18497,,Fm-3m
JVASP-69035,BaZr4Cu,FAILED_JVASP-69035.cif,0.0,0.0,mBJ,0.0,0.65095,,F-43m
JVASP-28400,Te2W,FAILED_JVASP-28400.cif,1.285,1.351,mBJ,0.066,0.04594,,P-6m2
JVASP-16087,W,FAILED_JVASP-16087.cif,0.0,0.0,mBJ,0.0,0.4743,,Fm-3m
JVASP-65738,Ba2YNb,FAILED_JVASP-65738.cif,0.0,0.0,mBJ,0.0,0.84747,,Fm-3m
JVASP-97797,Nd2InGe2,FAILED_JVASP-97797.cif,0.0,0.0,mBJ,0.0,-0.77295,,P4/mbm
JVASP-69070,BaBeV2,FAILED_JVASP-69070.cif,0.0,0.0,mBJ,0.0,1.32003,,P4/mmm
JVASP-3270,K3Sb,FAILED_JVASP-3270.cif,0.478,1.637,mBJ,1.159,-0.50346,,P6_3/mmc
JVASP-601,Te2Rh,FAILED_JVASP-601.cif,0.0,0.0,mBJ,0.0,-0.36728,,P-3m1
JVASP-60966,RbAuN12,FAILED_JVASP-60966.cif,1.477,1.624,mBJ,0.147,0.46759,,C2/c
JVASP-65589,BaGeBi2,FAILED_JVASP-65589.cif,0.0,0.0,mBJ,0.0,-0.24963,,P4mm
JVASP-65238,BeVGa4,FAILED_JVASP-65238.cif,0.0,0.0,mBJ,0.0,0.45765,,F-43m
JVASP-85682,HPbBrO,FAILED_JVASP-85682.cif,3.233,4.282,mBJ,1.049,-1.11721,,Pnma
JVASP-86797,PdCl2,FAILED_JVASP-86797.cif,0.658,0.622,mBJ,-0.036,-0.44889,,Pnnm
JVASP-65661,BaNiRu2,FAILED_JVASP-65661.cif,0.0,0.0,mBJ,0.0,1.0753,,I4/mmm
JVASP-62464,CaAs2O6,FAILED_JVASP-62464.cif,3.479,4.815,mBJ,1.336,-1.87735,,P-31m
JVASP-65777,Ba2MnSn,FAILED_JVASP-65777.cif,0.0,0.0,mBJ,0.0,-0.01769,,Fm-3m
JVASP-69195,BaZr4Ti,FAILED_JVASP-69195.cif,0.0,0.0,mBJ,0.0,0.62411,,F-43m
JVASP-65313,HfBeCd,FAILED_JVASP-65313.cif,0.0,0.0,mBJ,0.0,0.07022,,I4mm
JVASP-69110,BaSrCa2,FAILED_JVASP-69110.cif,0.0,0.0,mBJ,0.0,0.02096,,Pmm2
JVASP-65703,Ba2NbTe,FAILED_JVASP-65703.cif,0.0,0.0,mBJ,0.0,0.09624,,Fm-3m
JVASP-97377,Rh3S4,FAILED_JVASP-97377.cif,0.0,0.0,mBJ,0.0,-0.55941,,C2/m
JVASP-65627,BaPtBr2,FAILED_JVASP-65627.cif,0.0,0.0,mBJ,0.0,-0.85551,,P4/mmm
JVASP-14701,UP2,FAILED_JVASP-14701.cif,0.0,0.0,mBJ,0.0,-0.85236,,P4/nmm
JVASP-65454,BaZnPt2,FAILED_JVASP-65454.cif,0.0,0.0,mBJ,0.0,-0.42276,,P4/mmm
JVASP-65398,BaTlRu2,FAILED_JVASP-65398.cif,0.0,0.0,mBJ,0.0,0.3828,,P4mm
JVASP-48176,MnCdO2,FAILED_JVASP-48176.cif,0.0,0.0,mBJ,0.0,-1.1836,,P4/mmm
JVASP-85389,CdPdC6N6,FAILED_JVASP-85389.cif,4.16,4.345,mBJ,0.185,0.48884,,Fm-3m
JVASP-87125,BaCdS2,FAILED_JVASP-87125.cif,1.67,3.269,mBJ,1.599,-1.48179,,Pnma
JVASP-86170,Tl2CdGeTe4,FAILED_JVASP-86170.cif,0.268,0.761,mBJ,0.493,-0.26563,,I-42m
JVASP-91577,Ti3Pd,FAILED_JVASP-91577.cif,0.0,0.0,mBJ,0.0,-0.35163,,Pm-3n
JVASP-69231,BaCrBr2,FAILED_JVASP-69231.cif,0.0,0.0,mBJ,0.0,-0.78179,,P4/mmm
JVASP-69154,BaSi2P,FAILED_JVASP-69154.cif,0.0,0.0,mBJ,0.0,0.29887,,I4/mmm
JVASP-68953,KBaLi2,FAILED_JVASP-68953.cif,0.0,0.0,mBJ,0.0,0.12312,,P4/mmm
JVASP-16175,BaAsPd,FAILED_JVASP-16175.cif,0.0,0.0,mBJ,0.0,-0.97674,,P-6m2
JVASP-65166,ZrBeCo4,FAILED_JVASP-65166.cif,0.0,0.0,mBJ,0.0,-0.15589,,F-43m
JVASP-3861,SmClO,FAILED_JVASP-3861.cif,4.863,6.016,mBJ,1.153,-3.27424,,P4/nmm
JVASP-86114,Ca4TiN4,FAILED_JVASP-86114.cif,1.703,2.928,mBJ,1.225,-1.38518,,P-1
JVASP-69234,Ba2SbTe,FAILED_JVASP-69234.cif,0.0,0.0,mBJ,0.0,-1.24509,,Fm-3m
JVASP-92218,Li3NbO4,FAILED_JVASP-92218.cif,1.043,1.832,mBJ,0.789,-2.52053,,I4/mmm
JVASP-86694,NbBr5,FAILED_JVASP-86694.cif,1.472,1.884,mBJ,0.412,-0.88574,,P-1
JVASP-69113,BaNa2Pt,FAILED_JVASP-69113.cif,0.0,0.0,mBJ,0.0,-0.05824,,P4/mmm
JVASP-97798,SmGeRu,FAILED_JVASP-97798.cif,0.0,0.0,mBJ,0.0,-0.68044,,Pnma
JVASP-69037,Ba2HgPb,FAILED_JVASP-69037.cif,0.0,0.071,mBJ,0.071,-0.61136,,Fm-3m
JVASP-62771,MgB2H8,FAILED_JVASP-62771.cif,6.05,7.958,mBJ,1.908,-0.21782,,P-3m1
JVASP-86750,DyFe2B2,FAILED_JVASP-86750.cif,0.0,0.0,mBJ,0.0,-0.49347,,I4/mmm
JVASP-52572,LiAgF2,FAILED_JVASP-52572.cif,1.866,3.162,mBJ,1.296,-2.10118,,C2/m
JVASP-68997,Ba2SnPb,FAILED_JVASP-68997.cif,0.0,0.0,mBJ,0.0,-0.58678,,Fm-3m
JVASP-65591,Ba2CrTe,FAILED_JVASP-65591.cif,0.0,0.0,mBJ,0.0,-0.28625,,Fm-3m
JVASP-69311,BaCa2Mg,FAILED_JVASP-69311.cif,0.0,0.0,mBJ,0.0,-0.03893,,P4mm
JVASP-16088,Re,FAILED_JVASP-16088.cif,0.0,0.0,mBJ,0.0,0.0647,,Fm-3m
JVASP-69156,Ba2MgZn,FAILED_JVASP-69156.cif,0.0,0.0,mBJ,0.0,-0.15544,,Fm-3m
JVASP-65664,Ba2TaTe,FAILED_JVASP-65664.cif,0.0,0.0,mBJ,0.0,0.26454,,Fm-3m
JVASP-69197,Ba2YZr,FAILED_JVASP-69197.cif,0.0,0.0,mBJ,0.0,0.61003,,Fm-3m
JVASP-42830,Mn2OF3,FAILED_JVASP-42830.cif,0.0,0.0,mBJ,0.0,-2.25951,,Cmcm
JVASP-69075,BaMoBr2,FAILED_JVASP-69075.cif,0.0,0.0,mBJ,0.0,-0.21952,,P4/mmm
JVASP-69274,BaLi2Ca,FAILED_JVASP-69274.cif,0.0,0.0,mBJ,0.0,0.05785,,P4/mmm
JVASP-65740,K2BaTi,FAILED_JVASP-65740.cif,0.0,0.0,mBJ,0.0,0.61897,,P4mm
JVASP-65280,BeGa4W,FAILED_JVASP-65280.cif,0.0,0.0,mBJ,0.0,0.4403,,F-43m
JVASP-15222,LuSi2Pd2,FAILED_JVASP-15222.cif,0.0,0.0,mBJ,0.0,-0.8256,,I4/mmm
JVASP-91764,NaCO2,FAILED_JVASP-91764.cif,0.081,0.0,mBJ,-0.081,-1.2275,,C2/c
JVASP-69361,K2BaFe,FAILED_JVASP-69361.cif,0.0,0.0,mBJ,0.0,0.79457,,Pmmm
JVASP-65629,Ba2YHf,FAILED_JVASP-65629.cif,0.0,0.0,mBJ,0.0,0.66561,,Fm-3m
JVASP-65169,YBeBr4,FAILED_JVASP-65169.cif,0.0,0.0,mBJ,0.0,0.30223,,F-43m
JVASP-65402,BaRuPt2,FAILED_JVASP-65402.cif,0.0,0.0,mBJ,0.0,0.04406,,P4/mmm
JVASP-1963,BiTeI,FAILED_JVASP-1963.cif,1.2,1.683,mBJ,0.483,-0.36898,,P3m1
JVASP-65520,BaOsCl2,FAILED_JVASP-65520.cif,0.0,0.0,mBJ,0.0,-0.15499,,P4/mmm
JVASP-3273,K3As,FAILED_JVASP-3273.cif,0.214,1.534,mBJ,1.32,-0.43675,,P6_3/mmc
JVASP-65556,Ba2PbSe,FAILED_JVASP-65556.cif,0.0,0.0,mBJ,0.0,-0.95044,,Fm-3m
JVASP-87066,BaAsPt,FAILED_JVASP-87066.cif,0.0,0.0,mBJ,0.0,-1.03519,,P2_13
JVASP-5260,Bi2TeI,FAILED_JVASP-5260.cif,0.011,0.152,mBJ,0.141,-0.2578,,R-3m
JVASP-86460,CaAs2O6,FAILED_JVASP-86460.cif,3.479,4.816,mBJ,1.337,-1.87729,,P-31m
JVASP-65315,BeVRu4,FAILED_JVASP-65315.cif,0.0,0.0,mBJ,0.0,0.47106,,F-43m
JVASP-69038,BaSr2Sc,FAILED_JVASP-69038.cif,0.0,0.0,mBJ,0.0,0.20288,,P4/mmm
JVASP-86521,Eu2I2O,FAILED_JVASP-86521.cif,0.0,0.0,mBJ,0.0,-1.88116,,Ibam
JVASP-65784,Ba2TlV,FAILED_JVASP-65784.cif,0.0,0.0,mBJ,0.0,0.293,,Fm-3m
JVASP-69235,BaMn2Cu,FAILED_JVASP-69235.cif,0.0,0.0,mBJ,0.0,0.88988,,I4/mmm
JVASP-62314,K5CuAs2,FAILED_JVASP-62314.cif,0.383,1.515,mBJ,1.132,-0.44451,,P6_3/mmc
JVASP-65521,Ba2TaBi,FAILED_JVASP-65521.cif,0.0,0.0,mBJ,0.0,0.44038,,Fm-3m
JVASP-97980,SbMo2S2,FAILED_JVASP-97980.cif,0.0,0.0,mBJ,0.0,-0.58387,,P2_1/m
JVASP-68998,BaSrY2,FAILED_JVASP-68998.cif,0.0,0.0,mBJ,0.0,0.28908,,P4/mmm
JVASP-62775,UCo4B4,FAILED_JVASP-62775.cif,0.0,0.0,mBJ,0.0,-0.41441,,P4_2/nmc
JVASP-65667,Ba2CrSn,FAILED_JVASP-65667.cif,0.0,0.0,mBJ,0.0,0.04145,,Fm-3m
JVASP-85600,Al2O3,FAILED_JVASP-85600.cif,1.213,2.686,mBJ,1.473,-2.58725,,P2/m
JVASP-22723,MgMoN2,FAILED_JVASP-22723.cif,0.939,1.137,mBJ,0.198,-1.09348,,P6_3/mmc
JVASP-61305,Mg2BBrN2,FAILED_JVASP-61305.cif,3.62,4.974,mBJ,1.354,-1.26344,,C2/c
JVASP-63408,RbAuSe2O8,FAILED_JVASP-63408.cif,1.57,1.881,mBJ,0.311,-0.74867,,C2/m
JVASP-69363,Ba2CdCl,FAILED_JVASP-69363.cif,0.0,0.0,mBJ,0.0,-0.9088,,Fm-3m
JVASP-62634,PrCo12B6,FAILED_JVASP-62634.cif,0.0,0.0,mBJ,0.0,-0.33892,,R-3m
JVASP-65785,Ba2HfPb,FAILED_JVASP-65785.cif,0.0,0.0,mBJ,0.0,0.31958,,Fm-3m