material_id,formula,cif_path,pbe_bandgap,hse_bandgap,gap_type,correction,formation_energy,total_energy,spacegroup
JVASP-63690,BN,FAILED_JVASP-63690.cif,4.267,5.801,mBJ,1.534,-1.38464,,R3m
JVASP-68129,BeNbSi2,FAILED_JVASP-68129.cif,0.0,0.0,mBJ,0.0,-0.05978,,I-4m2
JVASP-67214,HfMnBe,FAILED_JVASP-67214.cif,0.0,0.0,mBJ,0.0,-0.02765,,I4mm
JVASP-73888,LiBeW2,FAILED_JVASP-73888.cif,0.0,0.0,mBJ,0.0,0.18249,,P4mm
JVASP-67980,Sr2HfBe,FAILED_JVASP-67980.cif,0.0,0.0,mBJ,0.0,0.84059,,F-43m
JVASP-68192,LaBeV2,FAILED_JVASP-68192.cif,0.0,0.0,mBJ,0.0,0.57447,,I-4m2
JVASP-67462,TaBeTc,FAILED_JVASP-67462.cif,0.0,0.0,mBJ,0.0,0.12419,,I4mm
JVASP-86485,LiGaTe2,FAILED_JVASP-86485.cif,1.574,2.36,mBJ,0.786,-0.63936,,I-42d
JVASP-92233,ZrFeF6,FAILED_JVASP-92233.cif,0.0,0.0,mBJ,0.0,-3.15604,,Fm-3m
JVASP-14072,ErF3,FAILED_JVASP-14072.cif,8.094,10.006,mBJ,1.912,-4.37655,,Pnma
JVASP-73569,Be2CrSe,FAILED_JVASP-73569.cif,0.0,0.0,mBJ,0.0,0.23538,,P4mm
JVASP-67710,ScBeZn2,FAILED_JVASP-67710.cif,0.0,0.0,mBJ,0.0,-0.15413,,F-43m
JVASP-18580,Y3Al,FAILED_JVASP-18580.cif,0.0,0.0,mBJ,0.0,-0.22685,,Pm-3m
JVASP-3561,TlIO3,FAILED_JVASP-3561.cif,2.867,3.31,mBJ,0.443,-0.62973,,R3m
JVASP-15815,ThZn2,FAILED_JVASP-15815.cif,0.0,0.0,mBJ,0.0,-0.30162,,P6/mmm
JVASP-90798,PbS,FAILED_JVASP-90798.cif,0.814,1.482,mBJ,0.668,-0.63993,,Fm-3m
JVASP-66912,BeZnCl,FAILED_JVASP-66912.cif,0.0,0.0,mBJ,0.0,-0.16086,,P3m1
JVASP-86884,Tl2CdSnTe4,FAILED_JVASP-86884.cif,0.329,0.777,mBJ,0.448,-0.3093,,I-42m
JVASP-67553,K4BePb,FAILED_JVASP-67553.cif,0.0,0.0,mBJ,0.0,0.56782,,F-43m
JVASP-67921,Ti2BeCo,FAILED_JVASP-67921.cif,0.0,0.0,mBJ,0.0,-0.14981,,I-4m2
JVASP-42263,CrO,FAILED_JVASP-42263.cif,0.0,0.0,mBJ,0.0,-1.50484,,P4_2/mmc
JVASP-43565,Li3V2P4H2O16,FAILED_JVASP-43565.cif,0.014,0.0,mBJ,-0.014,-2.2573,,P1
JVASP-88073,PrS2,FAILED_JVASP-88073.cif,0.513,1.258,mBJ,0.745,-1.92578,,P2_1/c
JVASP-68193,BeV2Cl,FAILED_JVASP-68193.cif,0.0,0.0,mBJ,0.0,0.52717,,I-4m2
JVASP-16142,ScGeAu,FAILED_JVASP-16142.cif,0.0,0.0,mBJ,0.0,-0.73745,,P6_3mc
JVASP-86709,K2NbCl6,FAILED_JVASP-86709.cif,0.0,0.0,mBJ,0.0,-1.68831,,P4/mnc
JVASP-42611,Cu2S,FAILED_JVASP-42611.cif,0.0,0.0,mBJ,0.0,0.03364,,P6_3/mmc
JVASP-67589,BeGaTc2,FAILED_JVASP-67589.cif,0.0,0.0,mBJ,0.0,-0.00355,,I-4m2
JVASP-75452,AsPtAu,FAILED_JVASP-75452.cif,0.0,0.0,mBJ,0.0,0.35344,,F-43m
JVASP-68920,Zr2BeCl,FAILED_JVASP-68920.cif,0.0,0.0,mBJ,0.0,0.06754,,I-4m2
JVASP-91778,PbS,FAILED_JVASP-91778.cif,0.654,1.51,mBJ,0.856,-0.52569,,P2_1/m
JVASP-68426,Be2InTc,FAILED_JVASP-68426.cif,0.0,0.0,mBJ,0.0,0.12763,,P4/mmm
JVASP-537,TaTe2,FAILED_JVASP-537.cif,0.0,0.0,mBJ,0.0,-0.34619,,C2/m
JVASP-3678,Rb2PbCl6,FAILED_JVASP-3678.cif,0.902,2.021,mBJ,1.119,-1.37744,,Fm-3m
JVASP-68046,KSc2Be,FAILED_JVASP-68046.cif,0.0,0.0,mBJ,0.0,0.35983,,P4mm
JVASP-67137,Be2MoCl,FAILED_JVASP-67137.cif,0.0,0.2,mBJ,0.2,0.34036,,P4mm
JVASP-62568,BN,FAILED_JVASP-62568.cif,3.652,5.337,mBJ,1.685,-1.37181,,P6_3/mmc
JVASP-68552,Be2GaIr,FAILED_JVASP-68552.cif,0.0,0.0,mBJ,0.0,-0.30192,,P4/mmm
JVASP-63278,GaAsO4,FAILED_JVASP-63278.cif,3.198,5.198,mBJ,2.0,-1.52687,,P3_121
JVASP-66819,BeFePt,FAILED_JVASP-66819.cif,0.0,0.0,mBJ,0.0,-0.09511,,P3m1
JVASP-86184,LuAg4,FAILED_JVASP-86184.cif,0.0,0.0,mBJ,0.0,-0.25456,,I4/m
JVASP-75492,AsPtRh2,FAILED_JVASP-75492.cif,0.0,0.0,mBJ,0.0,0.11753,,F-43m
JVASP-14581,TmCd,FAILED_JVASP-14581.cif,0.0,0.0,mBJ,0.0,-0.33449,,Pm-3m
JVASP-67749,BeNbTl,FAILED_JVASP-67749.cif,0.0,0.0,mBJ,0.0,0.45262,,I4mm
JVASP-68788,BePt2Cl,FAILED_JVASP-68788.cif,0.0,0.0,mBJ,0.0,0.38776,,I-4m2
JVASP-68729,BeMoPd,FAILED_JVASP-68729.cif,0.0,0.0,mBJ,0.0,0.08384,,P3m1
JVASP-85627,Pu2InNi2,FAILED_JVASP-85627.cif,0.0,0.0,mBJ,0.0,-0.41365,,P4/mbm
JVASP-12150,ScHO2,FAILED_JVASP-12150.cif,4.26,5.324,mBJ,1.064,-2.65689,,Cc
JVASP-68245,MnBeRh2,FAILED_JVASP-68245.cif,0.0,0.0,mBJ,0.0,-0.18409,,I-4m2
JVASP-87082,TiFeSi,FAILED_JVASP-87082.cif,0.0,0.0,mBJ,0.0,-0.69568,,Ima2
JVASP-599,TlCrTe2,FAILED_JVASP-599.cif,0.0,0.0,mBJ,0.0,-0.22916,,P-3m1
JVASP-90889,KRhF6,FAILED_JVASP-90889.cif,0.0,0.0,mBJ,0.0,-1.98521,,R-3
JVASP-67791,MnBeV,FAILED_JVASP-67791.cif,0.0,0.0,mBJ,0.0,0.04483,,I4mm
JVASP-73893,BeCdPd2,FAILED_JVASP-73893.cif,0.0,0.0,mBJ,0.0,-0.25416,,P4mm
JVASP-68131,BeInW2,FAILED_JVASP-68131.cif,0.0,0.0,mBJ,0.0,0.29708,,I-4m2
JVASP-68662,Mg2BeCl,FAILED_JVASP-68662.cif,0.0,0.0,mBJ,0.0,0.00515,,I-4m2
JVASP-91824,Mg3CdO4,FAILED_JVASP-91824.cif,1.42,2.927,mBJ,1.507,-2.40304,,Pm-3m
JVASP-67923,CaSc2Be,FAILED_JVASP-67923.cif,0.0,0.0,mBJ,0.0,0.14447,,P4mm
JVASP-86419,AuO2F6,FAILED_JVASP-86419.cif,0.397,0.551,mBJ,0.154,-0.69391,,P-1
JVASP-73609,Be2CrSb,FAILED_JVASP-73609.cif,0.0,0.0,mBJ,0.0,0.46032,,I4/mmm
JVASP-22710,LiNiF3,FAILED_JVASP-22710.cif,0.0,0.002,mBJ,0.002,-2.19199,,R-3
JVASP-73033,Be2FePb,FAILED_JVASP-73033.cif,0.0,0.0,mBJ,0.0,0.59964,,I4/mmm
JVASP-67554,BeCdFe2,FAILED_JVASP-67554.cif,0.0,0.0,mBJ,0.0,0.19838,,P4mm
JVASP-74001,BeInMo2,FAILED_JVASP-74001.cif,0.0,0.0,mBJ,0.0,0.21568,,P4mm
JVASP-67628,BeGeTe2,FAILED_JVASP-67628.cif,0.0,0.0,mBJ,0.0,0.06162,,P4mm
JVASP-66919,HfBeTc,FAILED_JVASP-66919.cif,0.0,0.0,mBJ,0.0,-0.21379,,I4mm
JVASP-66991,CaBeNb,FAILED_JVASP-66991.cif,0.0,0.0,mBJ,0.0,0.38917,,I4mm
JVASP-28568,Te2Mo2WSe2S2,FAILED_JVASP-28568.cif,0.033,0.127,mBJ,0.094,-0.5004,,Cm
JVASP-75455,Mg2CoAs,FAILED_JVASP-75455.cif,0.0,0.0,mBJ,0.0,0.05057,,F-43m
JVASP-62681,BN,FAILED_JVASP-62681.cif,4.435,6.114,mBJ,1.679,-1.38422,,P6_3/mmc
JVASP-1723,RbErSe2,FAILED_JVASP-1723.cif,1.965,2.927,mBJ,0.962,-1.83639,,R-3m
JVASP-74064,Mn2BeCd,FAILED_JVASP-74064.cif,0.0,0.0,mBJ,0.0,0.15192,,P4mm
JVASP-16116,ScSiAu,FAILED_JVASP-16116.cif,0.0,0.0,mBJ,0.0,-0.73684,,P-6m2
JVASP-3567,BiIO,FAILED_JVASP-3567.cif,1.576,2.369,mBJ,0.793,-1.07756,,P4/nmm
JVASP-15645,HoCo2Si2,FAILED_JVASP-15645.cif,0.0,0.0,mBJ,0.0,-0.79553,,I4/mmm
JVASP-67139,Be2VTe,FAILED_JVASP-67139.cif,0.0,0.0,mBJ,0.0,0.36626,,P4mm
JVASP-62854,MgB2H8,FAILED_JVASP-62854.cif,6.023,8.454,mBJ,2.431,-0.23349,,P-4n2
JVASP-73083,BeTePd,FAILED_JVASP-73083.cif,0.0,0.0,mBJ,0.0,0.01016,,P-6m2
JVASP-66821,LiBePt,FAILED_JVASP-66821.cif,0.0,0.0,mBJ,0.0,-0.5337,,I4mm
JVASP-90515,CrO3,FAILED_JVASP-90515.cif,1.902,2.387,mBJ,0.485,-1.70516,,Ama2
JVASP-91730,CdCu2SnS4,FAILED_JVASP-91730.cif,0.019,0.597,mBJ,0.578,-0.46746,,I-42m
JVASP-66750,TiBeTe,FAILED_JVASP-66750.cif,0.0,0.0,mBJ,0.0,0.04578,,I4mm
JVASP-20063,CeMg,FAILED_JVASP-20063.cif,0.0,0.0,mBJ,0.0,0.11651,,Pm-3m
JVASP-68737,BeVSb,FAILED_JVASP-68737.cif,0.0,0.0,mBJ,0.0,0.63325,,P3m1
JVASP-67712,BeTlMo,FAILED_JVASP-67712.cif,0.0,0.0,mBJ,0.0,0.70868,,I4mm
JVASP-5278,KHCO3,FAILED_JVASP-5278.cif,5.394,7.447,mBJ,2.053,-1.59968,,P-1
JVASP-92181,Zn3CrSe4,FAILED_JVASP-92181.cif,0.0,0.0,mBJ,0.0,-0.52024,,P-43m
JVASP-90843,KSe3,FAILED_JVASP-90843.cif,0.42,1.077,mBJ,0.657,-0.4976,,C2
JVASP-68611,ZrBe2W,FAILED_JVASP-68611.cif,0.0,0.0,mBJ,0.0,0.26823,,P4mm
JVASP-85696,KHCO2,FAILED_JVASP-85696.cif,4.305,6.038,mBJ,1.733,-1.36976,,Cmcm
JVASP-67925,SrTi2Be,FAILED_JVASP-67925.cif,0.0,0.0,mBJ,0.0,0.30479,,P4mm
JVASP-67870,Ta2BeOs,FAILED_JVASP-67870.cif,0.0,0.0,mBJ,0.0,-0.14265,,P4mm
JVASP-85506,Si2H2O5,FAILED_JVASP-85506.cif,5.696,8.503,mBJ,2.807,-2.23539,,C2
JVASP-62683,TlBS2,FAILED_JVASP-62683.cif,1.698,2.639,mBJ,0.941,-0.53131,,R-3m
JVASP-75457,MnSnAs,FAILED_JVASP-75457.cif,0.0,0.0,mBJ,0.0,0.20373,,F-43m
JVASP-67555,BeBiMo2,FAILED_JVASP-67555.cif,0.0,0.0,mBJ,0.0,0.2899,,P4mm
JVASP-67987,TaTi2Be,FAILED_JVASP-67987.cif,0.0,0.0,mBJ,0.0,0.02523,,I-4m2
JVASP-86948,RbCSO3F3,FAILED_JVASP-86948.cif,6.235,8.871,mBJ,2.636,-1.65835,,P2_1
JVASP-75570,SnAsIr,FAILED_JVASP-75570.cif,0.0,0.0,mBJ,0.0,-0.12188,,F-43m
JVASP-66993,HfBePd,FAILED_JVASP-66993.cif,0.0,0.0,mBJ,0.0,-0.38136,,I4mm
JVASP-67672,ZrBeNb,FAILED_JVASP-67672.cif,0.0,0.0,mBJ,0.0,0.0606,,I4mm
JVASP-43807,Na7NbO6,FAILED_JVASP-43807.cif,3.017,4.256,mBJ,1.239,-1.88169,,R3
JVASP-68666,Sr2BePd,FAILED_JVASP-68666.cif,0.0,0.0,mBJ,0.0,0.10427,,I-4m2
JVASP-73123,Be2VGa,FAILED_JVASP-73123.cif,0.0,0.0,mBJ,0.0,0.15724,,I4/mmm
JVASP-67832,BeGaRe2,FAILED_JVASP-67832.cif,0.0,0.0,mBJ,0.0,-0.06228,,P4mm
JVASP-89624,SrH2O2,FAILED_JVASP-89624.cif,4.34,6.794,mBJ,2.454,-1.94102,,Pnma
JVASP-42628,K6Cr2O9,FAILED_JVASP-42628.cif,0.0,0.0,mBJ,0.0,-1.91178,,Cm
JVASP-2193,Sb2Os,FAILED_JVASP-2193.cif,0.44,0.626,mBJ,0.186,0.00493,,Pnnm
JVASP-62575,Sr2BBrN2,FAILED_JVASP-62575.cif,2.598,4.154,mBJ,1.556,-1.5793,,R-3m
JVASP-68317,Be2CdRu,FAILED_JVASP-68317.cif,0.0,0.0,mBJ,0.0,-0.08043,,P4/mmm
JVASP-67074,CaScBe,FAILED_JVASP-67074.cif,0.0,0.0,mBJ,0.0,0.14531,,I4mm
JVASP-3681,Ag2HgI4,FAILED_JVASP-3681.cif,1.066,2.122,mBJ,1.056,-0.19308,,I-4
JVASP-85834,Th2Cu,FAILED_JVASP-85834.cif,0.0,0.0,mBJ,0.0,-0.12139,,I4/mcm
JVASP-91928,SiRu,FAILED_JVASP-91928.cif,0.242,0.191,mBJ,-0.051,-0.51056,,P2_13
JVASP-43570,Li2Fe3F8,FAILED_JVASP-43570.cif,0.0,0.0,mBJ,0.0,-2.31545,,R-3m
JVASP-68385,LiMnBe,FAILED_JVASP-68385.cif,0.0,0.0,mBJ,0.0,0.20668,,P3m1
JVASP-43437,LiFeF3,FAILED_JVASP-43437.cif,0.0,0.0,mBJ,0.0,-2.42339,,Pnma
JVASP-3579,PbBrF,FAILED_JVASP-3579.cif,2.945,4.142,mBJ,1.197,-1.78271,,P4/nmm
JVASP-91779,EuAs3,FAILED_JVASP-91779.cif,0.0,0.0,mBJ,0.0,-0.67102,,P-1
JVASP-68435,LiBe2V,FAILED_JVASP-68435.cif,0.0,0.0,mBJ,0.0,0.09901,,P4/mmm
JVASP-68497,BeVIn,FAILED_JVASP-68497.cif,0.0,0.0,mBJ,0.0,0.58483,,P3m1
JVASP-66751,NaBe2Pd,FAILED_JVASP-66751.cif,0.0,0.0,mBJ,0.0,0.03269,,P4mm
JVASP-68134,BeCrNi2,FAILED_JVASP-68134.cif,0.0,0.0,mBJ,0.0,-0.0062,,I-4m2
JVASP-62866,SrAl2B2O7,FAILED_JVASP-62866.cif,4.726,7.388,mBJ,2.662,-3.04928,,R32
JVASP-86710,Th2Ga,FAILED_JVASP-86710.cif,0.0,0.0,mBJ,0.0,-0.37319,,I4/mcm
JVASP-67793,BeSi2Br,FAILED_JVASP-67793.cif,0.0,0.0,mBJ,0.0,0.92268,,I-4m2
JVASP-68926,BeSiRh,FAILED_JVASP-68926.cif,0.0,0.0,mBJ,0.0,-0.48068,,I4mm
JVASP-68795,Be2MoPb2,FAILED_JVASP-68795.cif,0.0,0.0,mBJ,0.0,1.18754,,I4/mmm
JVASP-66930,MnBePb,FAILED_JVASP-66930.cif,0.0,0.0,mBJ,0.0,0.9522,,P3m1
JVASP-48713,VOF3,FAILED_JVASP-48713.cif,1.993,1.935,mBJ,-0.058,-2.65467,,Pnc2
JVASP-67390,LiYBe,FAILED_JVASP-67390.cif,0.0,0.0,mBJ,0.0,0.20343,,P-6m2
JVASP-15646,ErZrSb,FAILED_JVASP-15646.cif,0.0,0.0,mBJ,0.0,-0.77885,,I4/mmm
JVASP-67927,Sc2BeOs,FAILED_JVASP-67927.cif,0.0,0.0,mBJ,0.0,-0.14817,,I-4m2
JVASP-48903,Li5MnCr3O8,FAILED_JVASP-48903.cif,0.0,0.0,mBJ,0.0,-1.98858,,R-3m
JVASP-66836,BePdCl,FAILED_JVASP-66836.cif,0.0,0.0,mBJ,0.0,-0.15432,,I4mm
JVASP-74008,KBeSi2,FAILED_JVASP-74008.cif,0.0,0.0,mBJ,0.0,0.42014,,P4mm
JVASP-67988,Na2BeGe,FAILED_JVASP-67988.cif,0.203,0.746,mBJ,0.543,0.1666,,F-43m
JVASP-18837,MnInPd2,FAILED_JVASP-18837.cif,0.0,0.0,mBJ,0.0,-0.31454,,Fm-3m
JVASP-68320,Sc2BeGe,FAILED_JVASP-68320.cif,0.0,0.0,mBJ,0.0,-0.25898,,I-4m2
JVASP-62578,HfCo3B2,FAILED_JVASP-62578.cif,0.0,0.0,mBJ,0.0,-0.5887,,R-3m
JVASP-75538,TeAsOs,FAILED_JVASP-75538.cif,0.0,0.0,mBJ,0.0,0.21516,,F-43m
JVASP-68386,BeIn2Ge,FAILED_JVASP-68386.cif,0.0,0.0,mBJ,0.0,0.49153,,I-4m2
JVASP-67833,BeInW2,FAILED_JVASP-67833.cif,0.0,0.0,mBJ,0.0,0.07803,,P4mm
JVASP-67673,Be2HgPd,FAILED_JVASP-67673.cif,0.0,0.0,mBJ,0.0,0.08063,,P4/mmm
JVASP-74069,KBePd2,FAILED_JVASP-74069.cif,0.0,0.0,mBJ,0.0,-0.06162,,P4mm
JVASP-73139,Be2NbFe,FAILED_JVASP-73139.cif,0.0,0.0,mBJ,0.0,0.01209,,I4/mmm
JVASP-19832,CoTe,FAILED_JVASP-19832.cif,0.0,0.0,mBJ,0.0,-0.03209,,P6_3/mmc
JVASP-87084,CeSiRu,FAILED_JVASP-87084.cif,0.0,0.0,mBJ,0.0,-0.6955,,P4/nmm
JVASP-86420,Sc2FeSi2,FAILED_JVASP-86420.cif,0.0,0.0,mBJ,0.0,-0.76577,,C2/m
JVASP-90615,SnI3,FAILED_JVASP-90615.cif,0.0,0.0,mBJ,0.0,-0.21607,,I4/mcm
JVASP-86082,CeP2,FAILED_JVASP-86082.cif,0.0,0.0,mBJ,0.0,-1.07708,,P2_1/c
JVASP-14116,YF3,FAILED_JVASP-14116.cif,7.874,8.494,mBJ,0.62,-4.36889,,Pnma
JVASP-67557,BeHgSe,FAILED_JVASP-67557.cif,0.0,0.745,mBJ,0.745,-0.03715,,I4mm
JVASP-22711,Na3VO4,FAILED_JVASP-22711.cif,3.782,4.288,mBJ,0.506,-2.30627,,I-42m
JVASP-88787,KSbO2,FAILED_JVASP-88787.cif,1.903,3.273,mBJ,1.37,-1.68713,,C2/c
JVASP-86137,FeAg3C6N6,FAILED_JVASP-86137.cif,0.0,0.029,mBJ,0.029,0.39106,,P-31m
JVASP-87138,SrGeTeO6,FAILED_JVASP-87138.cif,3.052,4.419,mBJ,1.367,-1.92829,,P312
JVASP-18938,Tb2C,FAILED_JVASP-18938.cif,0.0,0.0,mBJ,0.0,-0.31929,,R-3m
JVASP-75650,AsIr2Rh,FAILED_JVASP-75650.cif,0.0,0.0,mBJ,0.0,0.35493,,F-43m
JVASP-68676,BeCrSn2,FAILED_JVASP-68676.cif,0.0,0.0,mBJ,0.0,0.53017,,I-4m2
JVASP-75500,TaAsSe,FAILED_JVASP-75500.cif,0.0,0.0,mBJ,0.0,0.5632,,F-43m
JVASP-50348,NaSmO2,FAILED_JVASP-50348.cif,4.276,5.736,mBJ,1.46,-2.90224,,R-3m
JVASP-91731,ScF3,FAILED_JVASP-91731.cif,6.508,7.348,mBJ,0.84,-4.11455,,R-3c
JVASP-66932,TiBe2Ir,FAILED_JVASP-66932.cif,0.0,0.0,mBJ,0.0,-0.36382,,P4mm
JVASP-14707,DyNi2,FAILED_JVASP-14707.cif,0.0,0.0,mBJ,0.0,-0.50563,,Fd-3m
JVASP-67393,BeNbFe,FAILED_JVASP-67393.cif,0.0,0.0,mBJ,0.0,0.28337,,P3m1
JVASP-68498,BeTcBr,FAILED_JVASP-68498.cif,0.0,0.0,mBJ,0.0,0.53212,,P3m1
JVASP-92182,Rb3NaH4,FAILED_JVASP-92182.cif,1.935,4.283,mBJ,2.348,-0.22493,,Pm-3m
JVASP-86887,SrLi4P2,FAILED_JVASP-86887.cif,1.035,1.614,mBJ,0.579,-0.93984,,R-3m
JVASP-68929,BeNbRh,FAILED_JVASP-68929.cif,0.0,0.0,mBJ,0.0,-0.05994,,P3m1
JVASP-67877,BeCrFe2,FAILED_JVASP-67877.cif,0.0,0.0,mBJ,0.0,-0.00694,,I-4m2
JVASP-1417,SrO2,FAILED_JVASP-1417.cif,3.101,4.249,mBJ,1.148,-2.13869,,I4/mmm
JVASP-87022,PuF3,FAILED_JVASP-87022.cif,0.07,0.0,mBJ,-0.07,-3.91371,,P6_3/mmc
JVASP-68054,K2BeCo,FAILED_JVASP-68054.cif,0.0,0.001,mBJ,0.001,1.06478,,F-43m
JVASP-86259,TaNi3,FAILED_JVASP-86259.cif,0.0,0.0,mBJ,0.0,-0.37715,,P2_1/m
JVASP-66844,MgBeNi,FAILED_JVASP-66844.cif,0.0,0.0,mBJ,0.0,-0.17113,,I4mm
JVASP-75574,Tc2AsRh,FAILED_JVASP-75574.cif,0.0,0.0,mBJ,0.0,0.29523,,F-43m
JVASP-68198,K2BeGa,FAILED_JVASP-68198.cif,0.0,0.0,mBJ,0.0,0.47957,,F-43m
JVASP-1276,SrS,FAILED_JVASP-1276.cif,2.54,3.648,mBJ,1.108,-2.36365,,Fm-3m
JVASP-3684,K2PtCl6,FAILED_JVASP-3684.cif,1.646,2.168,mBJ,0.522,-1.28971,,Fm-3m
JVASP-75539,HfV2As,FAILED_JVASP-75539.cif,0.0,0.0,mBJ,0.0,0.00187,,F-43m
JVASP-68802,BeMoCl,FAILED_JVASP-68802.cif,0.0,0.0,mBJ,0.0,0.2089,,P3m1
JVASP-66935,TiBe2Tl,FAILED_JVASP-66935.cif,0.0,0.0,mBJ,0.0,0.49532,,Fm-3m
JVASP-48021,Mn6OF11,FAILED_JVASP-48021.cif,0.0,0.0,mBJ,0.0,-2.35405,,C2
JVASP-90220,Ba2NO6,FAILED_JVASP-90220.cif,0.022,0.0,mBJ,-0.022,-1.23091,,P-62m
JVASP-86187,K2SnHgSe4,FAILED_JVASP-86187.cif,1.472,2.401,mBJ,0.929,-0.73675,,I-42m
JVASP-573,VTe2,FAILED_JVASP-573.cif,0.0,0.0,mBJ,0.0,-0.3029,,P-3m1
JVASP-75608,CrHgAs,FAILED_JVASP-75608.cif,0.0,0.0,mBJ,0.0,0.38345,,F-43m
JVASP-86818,MnGaPt,FAILED_JVASP-86818.cif,0.0,0.0,mBJ,0.0,-0.37378,,P6_3/mmc
JVASP-85507,Si2H2O5,FAILED_JVASP-85507.cif,5.601,8.219,mBJ,2.618,-2.22751,,Cc
JVASP-68616,KLi2Be,FAILED_JVASP-68616.cif,0.0,0.0,mBJ,0.0,0.55778,,I-4m2
JVASP-67720,BeCdTe,FAILED_JVASP-67720.cif,0.0,0.0,mBJ,0.0,0.22466,,I4mm
JVASP-68387,NaBe2Ru,FAILED_JVASP-68387.cif,0.0,0.0,mBJ,0.0,0.0245,,P4/mmm
JVASP-68869,Sc2BeSb,FAILED_JVASP-68869.cif,0.0,0.0,mBJ,0.0,-0.29894,,I-4m2
JVASP-67082,BeGaRu,FAILED_JVASP-67082.cif,0.0,0.0,mBJ,0.0,-0.22221,,I4mm
JVASP-67795,CaBeTc2,FAILED_JVASP-67795.cif,0.0,0.0,mBJ,0.0,0.34979,,F-43m
JVASP-74072,Ti2BeSb,FAILED_JVASP-74072.cif,0.0,0.0,mBJ,0.0,-0.0436,,P4mm
JVASP-603,SiTe2,FAILED_JVASP-603.cif,0.0,0.0,mBJ,0.0,0.09425,,P-3m1
JVASP-75465,ZrVAs,FAILED_JVASP-75465.cif,0.0,0.0,mBJ,0.0,0.10024,,F-43m
JVASP-75692,NaVAs,FAILED_JVASP-75692.cif,0.0,0.0,mBJ,0.0,0.627,,F-43m
JVASP-67677,MnBeCr4,FAILED_JVASP-67677.cif,0.0,0.0,mBJ,0.0,0.29139,,F-43m
JVASP-67993,NaBeV2,FAILED_JVASP-67993.cif,0.0,0.0,mBJ,0.0,0.89761,,I-4m2
JVASP-67476,BeCuBr,FAILED_JVASP-67476.cif,0.0,0.0,mBJ,0.0,0.41037,,I4mm
JVASP-62704,ErCo12B6,FAILED_JVASP-62704.cif,0.0,0.0,mBJ,0.0,-0.34123,,R-3m
JVASP-86488,DyZrSb,FAILED_JVASP-86488.cif,0.0,0.0,mBJ,0.0,-0.80069,,I4/mmm
JVASP-74012,MgBeRh2,FAILED_JVASP-74012.cif,0.0,0.0,mBJ,0.0,-0.29302,,P4mm
JVASP-91593,ZnAg2SnS4,FAILED_JVASP-91593.cif,0.155,1.413,mBJ,1.258,-0.411,,I-42m
JVASP-85908,BAsO4,FAILED_JVASP-85908.cif,4.46,6.005,mBJ,1.545,-1.73729,,I-4
JVASP-73699,TaBeFe,FAILED_JVASP-73699.cif,0.0,0.0,mBJ,0.0,0.24387,,P3m1
JVASP-68251,CaBeNb2,FAILED_JVASP-68251.cif,0.0,0.0,mBJ,0.0,0.59318,,I-4m2
JVASP-66757,BeZnMo,FAILED_JVASP-66757.cif,0.0,0.0,mBJ,0.0,0.14763,,I4mm
JVASP-15984,Mn2AlB2,FAILED_JVASP-15984.cif,0.0,0.0,mBJ,0.0,-0.42592,,Cmmm
JVASP-2196,SnF4,FAILED_JVASP-2196.cif,3.159,5.266,mBJ,2.107,-2.44524,,I4/mmm
JVASP-66936,ScBeMo,FAILED_JVASP-66936.cif,0.0,0.0,mBJ,0.0,0.38937,,P3m1
JVASP-68744,NaBe2Tc,FAILED_JVASP-68744.cif,0.0,0.0,mBJ,0.0,0.20571,,P4/mmm
JVASP-49848,HoTlO2,FAILED_JVASP-49848.cif,1.574,2.125,mBJ,0.551,-2.58948,,R-3m
JVASP-67931,Ti2BeMo,FAILED_JVASP-67931.cif,0.0,0.0,mBJ,0.0,0.01438,,I-4m2
JVASP-63377,BN,FAILED_JVASP-63377.cif,5.299,6.648,mBJ,1.349,-0.87268,,Fddd
JVASP-67148,BeTcHg,FAILED_JVASP-67148.cif,0.0,0.0,mBJ,0.0,0.53033,,I4mm
JVASP-73251,HfBe2Se,FAILED_JVASP-73251.cif,0.0,0.0,mBJ,0.0,-0.06531,,P4mm
JVASP-43808,Li2FeF4,FAILED_JVASP-43808.cif,0.0,0.0,mBJ,0.0,-2.56544,,Cmcm
JVASP-68139,Na2BeBi,FAILED_JVASP-68139.cif,0.0,0.0,mBJ,0.0,0.19241,,I-4m2
JVASP-42671,SrCaI4,FAILED_JVASP-42671.cif,3.786,4.694,mBJ,0.908,-1.66482,,I4_1/a
JVASP-75503,AsRuBr,FAILED_JVASP-75503.cif,0.0,0.0,mBJ,0.0,1.39078,,F-43m
JVASP-67301,MnBe2Se,FAILED_JVASP-67301.cif,0.0,0.0,mBJ,0.0,0.25587,,P4mm
JVASP-86711,NaAgC2N2,FAILED_JVASP-86711.cif,2.49,3.3,mBJ,0.81,-0.03804,,C2/c
JVASP-91552,K2CdSnSe4,FAILED_JVASP-91552.cif,1.664,2.663,mBJ,0.999,-0.88601,,I-42m
JVASP-66845,Be2SiPt,FAILED_JVASP-66845.cif,0.0,0.0,mBJ,0.0,-0.1465,,P4mm
JVASP-67796,SrBeSb,FAILED_JVASP-67796.cif,0.0,0.0,mBJ,0.0,-0.03496,,I4mm
JVASP-67558,BeCdCo2,FAILED_JVASP-67558.cif,0.0,0.0,mBJ,0.0,0.30091,,I-4m2
JVASP-42763,LiFeO2,FAILED_JVASP-42763.cif,0.0,0.0,mBJ,0.0,-1.7646,,Fd-3m
JVASP-62711,DyB6,FAILED_JVASP-62711.cif,0.0,0.0,mBJ,0.0,-0.41596,,Pm-3m
JVASP-68325,NaSc2Be,FAILED_JVASP-68325.cif,0.0,0.0,mBJ,0.0,0.50033,,I-4m2
JVASP-88461,Rb4CO4,FAILED_JVASP-88461.cif,2.414,4.792,mBJ,2.378,-1.44259,,I-42m
JVASP-19926,USi2,FAILED_JVASP-19926.cif,0.0,0.0,mBJ,0.0,-0.2209,,P6/mmm
JVASP-67760,SrBeV2,FAILED_JVASP-67760.cif,0.0,0.0,mBJ,0.0,0.44364,,P4mm
JVASP-68058,BeV2Tc,FAILED_JVASP-68058.cif,0.0,0.0,mBJ,0.0,-0.03822,,I-4m2
JVASP-67721,BeZnP,FAILED_JVASP-67721.cif,0.0,0.0,mBJ,0.0,0.3707,,I4mm
JVASP-3135,TbSF,FAILED_JVASP-3135.cif,1.354,2.569,mBJ,1.215,-3.2366,,P4/nmm
JVASP-1387,Na2O,FAILED_JVASP-1387.cif,2.214,4.707,mBJ,2.493,-1.41079,,Fm-3m
JVASP-68807,BeTl2Cr,FAILED_JVASP-68807.cif,0.0,0.0,mBJ,0.0,0.80353,,I-4m2
JVASP-85764,K2PbS2O8,FAILED_JVASP-85764.cif,2.816,5.102,mBJ,2.286,-1.53417,,R-3m
JVASP-68391,Be2CrRh,FAILED_JVASP-68391.cif,0.0,0.0,mBJ,0.0,-0.16329,,P4/mmm
JVASP-50349,LiTi4O8,FAILED_JVASP-50349.cif,0.0,2.889,mBJ,2.889,-3.10946,,Pm
JVASP-74073,BeCdCu2,FAILED_JVASP-74073.cif,0.0,0.0,mBJ,0.0,0.09487,,P4mm
JVASP-72530,ZrBe2Nb,FAILED_JVASP-72530.cif,0.0,0.0,mBJ,0.0,-0.00231,,I4/mmm
JVASP-90616,LiPtF6,FAILED_JVASP-90616.cif,0.0,0.0,mBJ,0.0,-1.80306,,R-3
JVASP-90845,SrMnSbF,FAILED_JVASP-90845.cif,0.0,0.0,mBJ,0.0,-1.71189,,P4/nmm
JVASP-67996,Na2BeCu,FAILED_JVASP-67996.cif,0.0,0.0,mBJ,0.0,0.46696,,F-43m
JVASP-67244,TaBeSn,FAILED_JVASP-67244.cif,0.0,0.0,mBJ,0.0,0.3616,,I4mm
JVASP-88683,H2O,FAILED_JVASP-88683.cif,5.82,8.655,mBJ,2.835,-0.9908,,P2_12_12_1
JVASP-68446,Zr2BeGe,FAILED_JVASP-68446.cif,0.0,0.0,mBJ,0.0,-0.27271,,I-4m2
JVASP-68682,TaBe2Ir2,FAILED_JVASP-68682.cif,0.0,0.0,mBJ,0.0,-0.38627,,I4/mmm
JVASP-66937,YScBe2,FAILED_JVASP-66937.cif,0.0,0.0,mBJ,0.0,0.00108,,P4/mmm
JVASP-67935,KBeNb2,FAILED_JVASP-67935.cif,0.0,0.0,mBJ,0.0,1.28396,,I-4m2
JVASP-68746,Be2NbNi,FAILED_JVASP-68746.cif,0.0,0.0,mBJ,0.0,-0.2154,,P4/mmm
JVASP-88788,RbSbO2,FAILED_JVASP-88788.cif,2.167,3.556,mBJ,1.389,-1.66307,,C2/c
JVASP-47535,Rb2CoO3,FAILED_JVASP-47535.cif,0.013,0.0,mBJ,-0.013,-1.40959,,Cmcm
JVASP-68392,BeNbSi,FAILED_JVASP-68392.cif,0.0,0.0,mBJ,0.0,0.28872,,P3m1
JVASP-48714,V2OF5,FAILED_JVASP-48714.cif,0.0,0.0,mBJ,0.0,-2.90973,,Pc
JVASP-85971,RePbClO4,FAILED_JVASP-85971.cif,3.171,3.717,mBJ,0.546,-1.59866,,Pmn2_1
JVASP-68511,BeNbRu,FAILED_JVASP-68511.cif,0.0,0.0,mBJ,0.0,0.07226,,P3m1
JVASP-63285,K2AgAs,FAILED_JVASP-63285.cif,1.287,2.087,mBJ,0.8,-0.47618,,Cmcm
JVASP-68618,Sc2BeIn,FAILED_JVASP-68618.cif,0.0,0.0,mBJ,0.0,0.00824,,I-4m2
JVASP-67155,TaBeRu,FAILED_JVASP-67155.cif,0.0,0.0,mBJ,0.0,-0.23218,,I4mm
JVASP-74020,Ti2BePb,FAILED_JVASP-74020.cif,0.0,0.0,mBJ,0.0,0.21334,,P4mm