material_id,formula,cif_path,pbe_bandgap,hse_bandgap,gap_type,correction,formation_energy,total_energy,spacegroup
JVASP-11162,NaTl2RhF6,FAILED_JVASP-11162.cif,1.886,1.858,mBJ,-0.028,-2.09745,,Fm-3m
JVASP-36495,Ca3BiSb,FAILED_JVASP-36495.cif,0.0,0.454,mBJ,0.454,-0.51754,,Pm-3m
JVASP-40126,BaNd2S4,FAILED_JVASP-40126.cif,1.64,2.47,mBJ,0.83,-2.27512,,Pnma
JVASP-57563,Rb2NaBiF6,FAILED_JVASP-57563.cif,5.125,6.722,mBJ,1.597,-2.81479,,Fm-3m
JVASP-10185,NaTl3S2O6,FAILED_JVASP-10185.cif,3.033,4.396,mBJ,1.363,-1.30964,,P-3m1
JVASP-30588,CrO2,FAILED_JVASP-30588.cif,0.0,0.0,mBJ,0.0,-1.72809,,R-3m
JVASP-36601,ZrCdO3,FAILED_JVASP-36601.cif,0.0,1.554,mBJ,1.554,-2.33908,,Pm-3m
JVASP-57781,CaZnF4,FAILED_JVASP-57781.cif,5.415,7.999,mBJ,2.584,-3.30061,,I4_1/a
JVASP-36076,Ho3Pu,FAILED_JVASP-36076.cif,0.0,0.0,mBJ,0.0,0.54024,,Pm-3m
JVASP-43520,CrO3,FAILED_JVASP-43520.cif,1.589,2.125,mBJ,0.536,-1.64956,,Amm2
JVASP-36293,HoSb,FAILED_JVASP-36293.cif,0.0,0.0,mBJ,0.0,-0.78747,,Pm-3m
JVASP-36455,Sr3PN,FAILED_JVASP-36455.cif,0.0,0.0,mBJ,0.0,0.13248,,Pm-3m
JVASP-11164,K2NaRhF6,FAILED_JVASP-11164.cif,2.006,1.91,mBJ,-0.096,-2.56079,,Fm-3m
JVASP-36413,BaSiC,FAILED_JVASP-36413.cif,0.261,0.748,mBJ,0.487,0.45949,,I4mm
JVASP-52150,KY3F10,FAILED_JVASP-52150.cif,6.158,8.221,mBJ,2.063,-3.99267,,R3m
JVASP-11445,PrCuS2,FAILED_JVASP-11445.cif,1.127,1.516,mBJ,0.389,-1.50561,,P2_1/c
JVASP-10186,MgUO4,FAILED_JVASP-10186.cif,1.819,1.852,mBJ,0.033,-3.23402,,Imma
JVASP-14102,TiSi,FAILED_JVASP-14102.cif,0.0,0.0,mBJ,0.0,-0.45663,,Cmmm
JVASP-4273,AsCl3,FAILED_JVASP-4273.cif,3.692,4.67,HSE,0.978,-0.69677,,P2_12_12_1
JVASP-36192,BC2N,FAILED_JVASP-36192.cif,1.907,2.69,mBJ,0.783,0.26398,,P-4m2
JVASP-35782,ScAu2,FAILED_JVASP-35782.cif,0.0,0.0,mBJ,0.0,-0.87602,,I4/mmm
JVASP-10669,BaYCuTe3,FAILED_JVASP-10669.cif,0.638,0.899,mBJ,0.261,-1.31849,,Cmcm
JVASP-10713,BaC2S2N2,FAILED_JVASP-10713.cif,3.912,4.698,mBJ,0.786,-0.56864,,C2/c
JVASP-34492,KNaSO4,FAILED_JVASP-34492.cif,5.643,8.91,mBJ,3.267,-1.93191,,P-3m1
JVASP-36673,CdCo3N,FAILED_JVASP-36673.cif,0.0,0.0,mBJ,0.0,-0.02111,,Pm-3m
JVASP-9964,CaFe2O4,FAILED_JVASP-9964.cif,0.0,0.0,mBJ,0.0,-1.91916,,Cmcm
JVASP-28476,MoW2Se4S2,FAILED_JVASP-28476.cif,0.606,0.951,mBJ,0.345,-0.66543,,P3m1
JVASP-11570,YBiO3,FAILED_JVASP-11570.cif,2.356,3.146,mBJ,0.79,-2.43487,,P6_3/mmc
JVASP-35708,HfIr,FAILED_JVASP-35708.cif,0.0,0.0,mBJ,0.0,-0.97599,,Pmma
JVASP-34494,BaUSi2O8,FAILED_JVASP-34494.cif,2.468,2.548,mBJ,0.08,-3.14851,,Cmcm
JVASP-11572,BiF4,FAILED_JVASP-11572.cif,1.285,1.677,mBJ,0.392,-2.11516,,C2
JVASP-57567,AgHgSBr,FAILED_JVASP-57567.cif,1.206,2.378,mBJ,1.172,-0.20431,,Pmma
JVASP-35741,CaGaGeH,FAILED_JVASP-35741.cif,0.568,0.835,mBJ,0.267,-0.4882,,P3m1
JVASP-30630,Mg2CrN2,FAILED_JVASP-30630.cif,0.0,0.0,mBJ,0.0,-0.6826,,C2/m
JVASP-11574,Mo3O8,FAILED_JVASP-11574.cif,0.256,0.588,mBJ,0.332,-1.87598,,C2/m
JVASP-36150,FeB,FAILED_JVASP-36150.cif,0.0,0.0,mBJ,0.0,-0.34346,,Cmcm
JVASP-9642,SbO2,FAILED_JVASP-9642.cif,1.445,2.282,mBJ,0.837,-1.15236,,Imma
JVASP-36245,RbAgO,FAILED_JVASP-36245.cif,0.0,1.535,mBJ,1.535,-0.39377,,F-43m
JVASP-11355,ZnSnO2,FAILED_JVASP-11355.cif,1.818,2.842,mBJ,1.024,-1.41116,,P-1
JVASP-51016,BaH4O3,FAILED_JVASP-51016.cif,4.445,6.184,mBJ,1.739,-1.5634,,Pmc2_1
JVASP-30589,VO2,FAILED_JVASP-30589.cif,1.6,2.083,mBJ,0.483,-2.30738,,R-3m
JVASP-9362,BaV4ZnO8,FAILED_JVASP-9362.cif,0.0,0.0,mBJ,0.0,-2.25866,,P-31m
JVASP-52154,Mg2TcO4,FAILED_JVASP-52154.cif,0.0,0.0,mBJ,0.0,-2.35529,,Imma
JVASP-34498,BaF2,FAILED_JVASP-34498.cif,7.091,8.404,mBJ,1.313,-4.05572,,Pnma
JVASP-36382,Ca2Sn,FAILED_JVASP-36382.cif,0.688,1.021,mBJ,0.333,-0.70853,,Fm-3m
JVASP-36602,TiCdO3,FAILED_JVASP-36602.cif,0.025,2.427,mBJ,2.402,-2.26755,,Pm-3m
JVASP-34499,LuPO4,FAILED_JVASP-34499.cif,6.14,7.764,mBJ,1.624,-3.16115,,I4_1/a
JVASP-11166,CdRh2O4,FAILED_JVASP-11166.cif,0.928,1.226,mBJ,0.298,-0.99646,,Fd-3m
JVASP-35987,InBi,FAILED_JVASP-35987.cif,0.0,0.0,mBJ,0.0,0.0353,,F-43m
JVASP-36456,Sr3AsN,FAILED_JVASP-36456.cif,0.0,0.0,mBJ,0.0,0.21728,,Pm-3m
JVASP-35694,AgRhO2,FAILED_JVASP-35694.cif,0.734,0.9,mBJ,0.166,-0.69988,,R-3m
JVASP-36541,Cr3N2,FAILED_JVASP-36541.cif,0.0,0.0,mBJ,0.0,-0.45414,,I4/mmm
JVASP-11614,TiZnBi2O6,FAILED_JVASP-11614.cif,2.048,3.218,mBJ,1.17,-1.9688,,P1
JVASP-36336,NiN,FAILED_JVASP-36336.cif,0.0,0.0,mBJ,0.0,1.01572,,Pm-3m
JVASP-10934,FeO2,FAILED_JVASP-10934.cif,0.0,0.0,mBJ,0.0,-1.42039,,P4_2/mnm
JVASP-11356,CrO2,FAILED_JVASP-11356.cif,0.087,0.0,mBJ,-0.087,-1.86554,,R3m
JVASP-36496,Sr3BiAs,FAILED_JVASP-36496.cif,0.0,0.0,mBJ,0.0,-0.35755,,Pm-3m
JVASP-57569,SbO2,FAILED_JVASP-57569.cif,2.092,1.995,mBJ,-0.097,-1.49514,,Pnna
JVASP-12448,Ca2Sn,FAILED_JVASP-12448.cif,0.103,0.146,mBJ,0.043,-0.74022,,Pnma
JVASP-11499,Ca2V3O8,FAILED_JVASP-11499.cif,0.0,0.0,mBJ,0.0,-2.85176,,C2/m
JVASP-36193,BeSe,FAILED_JVASP-36193.cif,0.974,1.513,mBJ,0.539,-0.35196,,P6_3/mmc
JVASP-5137,Tb3Mn3Ga2Si,FAILED_JVASP-5137.cif,0.0,0.0,mBJ,0.0,-0.29784,,P-62m
JVASP-10670,BaYAgTe3,FAILED_JVASP-10670.cif,0.819,1.109,mBJ,0.29,-1.3218,,Cmcm
JVASP-36645,TmAu,FAILED_JVASP-36645.cif,0.0,0.0,mBJ,0.0,-0.96797,,Cmcm
JVASP-51926,U2InPd2,FAILED_JVASP-51926.cif,0.0,0.0,mBJ,0.0,-0.21907,,P4/mbm
JVASP-57514,NaBC4O8,FAILED_JVASP-57514.cif,3.522,5.075,mBJ,1.553,-1.48696,,Cmcm
JVASP-12650,MnGeO3,FAILED_JVASP-12650.cif,0.771,7.66,mBJ,6.889,-1.64453,,R-3
JVASP-58273,TiBe12,FAILED_JVASP-58273.cif,0.0,0.0,mBJ,0.0,-0.06116,,P6/mmm
JVASP-30380,NbV3O10,FAILED_JVASP-30380.cif,1.065,1.389,mBJ,0.324,-2.40615,,P-4m2
JVASP-35988,HfN,FAILED_JVASP-35988.cif,0.0,0.0,mBJ,0.0,-0.95384,,Pm-3m
JVASP-35829,KCdSb,FAILED_JVASP-35829.cif,0.0,0.389,mBJ,0.389,-0.44888,,P4/nmm
JVASP-29798,AlHO2,FAILED_JVASP-29798.cif,5.206,7.005,mBJ,1.799,-2.45103,,Pnma
JVASP-57570,TbCl2F,FAILED_JVASP-57570.cif,4.89,6.579,mBJ,1.689,-3.03428,,C2/c
JVASP-36296,KCuO,FAILED_JVASP-36296.cif,0.0,0.416,mBJ,0.416,-0.3422,,F-43m
JVASP-30632,SbN,FAILED_JVASP-30632.cif,1.102,1.865,mBJ,0.763,0.33069,,P2_1
JVASP-9966,ZnFe2O4,FAILED_JVASP-9966.cif,0.0,0.0,mBJ,0.0,-1.32223,,Cmcm
JVASP-10935,MgCr2F12,FAILED_JVASP-10935.cif,0.0,0.0,mBJ,0.0,-2.59409,,P-1
JVASP-35695,MgSe,FAILED_JVASP-35695.cif,2.802,4.285,mBJ,1.483,-1.3595,,P6_3mc
JVASP-34156,Dy2CoSi2,FAILED_JVASP-34156.cif,0.0,0.0,mBJ,0.0,-0.74471,,C2/m
JVASP-36246,PdN2,FAILED_JVASP-36246.cif,0.0,0.0,mBJ,0.0,1.517,,Fm-3m
JVASP-38678,NaPd3,FAILED_JVASP-38678.cif,0.0,0.0,mBJ,0.0,-0.03821,,I4/mmm
JVASP-10671,Tm6ReO12,FAILED_JVASP-10671.cif,0.024,2.642,mBJ,2.618,-3.48906,,R-3
JVASP-12450,PbC2O4,FAILED_JVASP-12450.cif,2.856,3.871,mBJ,1.015,-1.27305,,P-1
JVASP-36339,RbTe,FAILED_JVASP-36339.cif,0.0,0.0,mBJ,0.0,-0.49322,,Fm-3m
JVASP-9099,Sb2O5,FAILED_JVASP-9099.cif,0.575,1.582,mBJ,1.007,-1.36244,,C2/c
JVASP-12452,K2PbO3,FAILED_JVASP-12452.cif,1.312,2.506,mBJ,1.194,-1.40662,,Cmc2_1
JVASP-12454,CaIn2O4,FAILED_JVASP-12454.cif,2.189,3.972,mBJ,1.783,-2.16829,,Fd-3m
JVASP-30590,CoO2,FAILED_JVASP-30590.cif,0.0,0.0,mBJ,0.0,-0.97271,,R-3m
JVASP-54892,TmFe2,FAILED_JVASP-54892.cif,0.0,0.0,mBJ,0.0,-0.19296,,Fd-3m
JVASP-58275,UB2C,FAILED_JVASP-58275.cif,0.0,0.0,mBJ,0.0,-0.43825,,R-3m
JVASP-40138,Ca4SnS6,FAILED_JVASP-40138.cif,1.928,3.063,mBJ,1.135,-1.68088,,Cc
JVASP-9644,BiO2,FAILED_JVASP-9644.cif,0.836,1.528,mBJ,0.692,-0.88871,,I2_12_12_1
JVASP-30634,W3O8,FAILED_JVASP-30634.cif,0.102,0.416,mBJ,0.314,-2.00268,,C2/m
JVASP-30381,VOF3,FAILED_JVASP-30381.cif,2.839,3.161,mBJ,0.322,-2.71335,,Cm
JVASP-10674,Ta2O5,FAILED_JVASP-10674.cif,3.177,4.273,mBJ,1.096,-3.04336,,C2/c
JVASP-36385,Ca2Si,FAILED_JVASP-36385.cif,0.64,1.024,mBJ,0.384,-0.53351,,Fm-3m
JVASP-57783,K2CoS2,FAILED_JVASP-57783.cif,0.0,0.0,mBJ,0.0,-0.90194,,Ibam
JVASP-22540,LiMgP,FAILED_JVASP-22540.cif,1.738,2.25,mBJ,0.512,-0.87575,,F-43m
JVASP-36340,RbTe,FAILED_JVASP-36340.cif,0.0,0.0,mBJ,0.0,-0.25345,,F-43m
JVASP-9100,BaN6,FAILED_JVASP-9100.cif,3.829,4.68,mBJ,0.851,-0.23643,,P2_1/m
JVASP-36674,CdNi3N,FAILED_JVASP-36674.cif,0.0,0.0,mBJ,0.0,-0.11464,,Pm-3m
JVASP-11449,Tl4GeS4,FAILED_JVASP-11449.cif,1.726,2.416,mBJ,0.69,-0.46518,,Cc
JVASP-57435,CaAl2O4,FAILED_JVASP-57435.cif,5.145,6.934,mBJ,1.789,-3.33292,,P2_1/m
JVASP-12460,ClO3,FAILED_JVASP-12460.cif,1.221,1.315,mBJ,0.094,0.22431,,Cc
JVASP-51017,RbHO,FAILED_JVASP-51017.cif,3.914,5.976,mBJ,2.062,-1.41406,,Cmc2_1
JVASP-40727,MnOF,FAILED_JVASP-40727.cif,0.0,0.0,mBJ,0.0,-2.05607,,Imma
JVASP-36297,KAgO,FAILED_JVASP-36297.cif,0.0,1.483,mBJ,1.483,-0.5238,,F-43m
JVASP-10717,Tb2Ti2S2O5,FAILED_JVASP-10717.cif,0.632,1.054,mBJ,0.422,-3.11194,,I4/mmm
JVASP-12033,YI3,FAILED_JVASP-12033.cif,2.676,2.886,mBJ,0.21,-1.47294,,R-3
JVASP-34509,SiO2,FAILED_JVASP-34509.cif,5.953,7.97,mBJ,2.017,-2.88098,,Ia-3
JVASP-36247,OsN2,FAILED_JVASP-36247.cif,0.0,0.0,mBJ,0.0,0.77142,,Amm2
JVASP-35784,NbPd2,FAILED_JVASP-35784.cif,0.0,0.0,mBJ,0.0,-0.42701,,Immm
JVASP-56792,SmZn5,FAILED_JVASP-56792.cif,0.0,0.0,mBJ,0.0,-0.30368,,P6/mmm
JVASP-36458,Sr3SbAs,FAILED_JVASP-36458.cif,0.0,0.185,mBJ,0.185,-0.48936,,Pm-3m
JVASP-34165,Na3YCl6,FAILED_JVASP-34165.cif,5.173,6.058,mBJ,0.885,-2.11668,,P2_1/c
JVASP-11633,CaBi2O4,FAILED_JVASP-11633.cif,1.753,3.741,mBJ,1.988,-1.90172,,C2/m
JVASP-12651,Mn2GeO4,FAILED_JVASP-12651.cif,0.0,0.0,mBJ,0.0,-1.54875,,Pbam
JVASP-36341,NpN,FAILED_JVASP-36341.cif,0.0,0.0,mBJ,0.0,-0.8529,,Pm-3m
JVASP-10022,MgSb2O4,FAILED_JVASP-10022.cif,0.955,1.365,mBJ,0.41,-1.6445,,Imma
JVASP-12464,ZnCl2,FAILED_JVASP-12464.cif,3.948,6.193,mBJ,2.245,-1.15829,,Pna2_1
JVASP-9646,SnO2,FAILED_JVASP-9646.cif,1.922,3.736,mBJ,1.814,-1.53361,,Fd-3m
JVASP-36497,Sr3BiSb,FAILED_JVASP-36497.cif,0.0,0.277,mBJ,0.277,-0.53488,,Pm-3m
JVASP-54893,HfCoSb,FAILED_JVASP-54893.cif,0.0,0.0,mBJ,0.0,0.25717,,F-43m
JVASP-14202,UFeS3,FAILED_JVASP-14202.cif,0.0,0.0,mBJ,0.0,-1.03418,,Cmcm
JVASP-28668,MoWS4,FAILED_JVASP-28668.cif,0.779,1.265,mBJ,0.486,-0.92824,,P-3m1
JVASP-9102,Sm2O3,FAILED_JVASP-9102.cif,3.83,5.215,mBJ,1.385,-3.6642,,C2/m
JVASP-29799,ZnH2O2,FAILED_JVASP-29799.cif,2.666,4.433,mBJ,1.767,-1.19102,,P-3m1
JVASP-36153,ErTlTe2,FAILED_JVASP-36153.cif,0.704,1.031,mBJ,0.327,-1.06867,,R-3m
JVASP-22541,H4BrN,FAILED_JVASP-22541.cif,4.368,5.67,mBJ,1.302,-0.50303,,P-43m
JVASP-30591,VO2,FAILED_JVASP-30591.cif,1.632,2.113,mBJ,0.481,-2.29215,,R-3m
JVASP-35990,MnGa,FAILED_JVASP-35990.cif,0.0,0.0,mBJ,0.0,-0.05048,,P4/mmm
JVASP-12465,BiCl3,FAILED_JVASP-12465.cif,3.052,4.178,mBJ,1.126,-0.98467,,Pnma
JVASP-35696,Ti2MnIn,FAILED_JVASP-35696.cif,0.045,0.057,mBJ,0.012,0.05646,,F-43m
JVASP-36386,RhN,FAILED_JVASP-36386.cif,0.0,0.0,mBJ,0.0,0.40058,,F-43m
JVASP-9227,CaSb2O6,FAILED_JVASP-9227.cif,1.48,2.017,mBJ,0.537,-1.8691,,Pmn2_1
JVASP-9103,NO2,FAILED_JVASP-9103.cif,2.521,3.625,mBJ,1.104,-0.18247,,P2_1/c
JVASP-49599,Ti2Al2O7,FAILED_JVASP-49599.cif,0.568,1.444,mBJ,0.876,-2.76226,,Fd-3m
JVASP-41730,KNdGeS4,FAILED_JVASP-41730.cif,2.272,3.248,mBJ,0.976,-1.36964,,P2_1
JVASP-34521,Ag3AsS3,FAILED_JVASP-34521.cif,1.078,1.804,mBJ,0.726,-0.13347,,R3c
JVASP-36342,NpN,FAILED_JVASP-36342.cif,0.0,0.0,mBJ,0.0,-1.19958,,F-43m
JVASP-9647,BiO2,FAILED_JVASP-9647.cif,0.816,1.251,mBJ,0.435,-0.86571,,Imma
JVASP-9538,MgVO2,FAILED_JVASP-9538.cif,0.0,0.0,mBJ,0.0,-2.15082,,C2/m
JVASP-36609,MnCdO3,FAILED_JVASP-36609.cif,0.0,0.0,mBJ,0.0,-1.36939,,Pm-3m
JVASP-27665,Ca2Cr3O8,FAILED_JVASP-27665.cif,0.043,0.0,mBJ,-0.043,-2.41099,,P6_3mc
JVASP-36299,FeH,FAILED_JVASP-36299.cif,0.0,0.0,mBJ,0.0,0.06075,,Fm-3m
JVASP-35697,UBi,FAILED_JVASP-35697.cif,0.0,0.0,mBJ,0.0,0.0985,,Pm-3m
JVASP-35991,MoP,FAILED_JVASP-35991.cif,0.0,0.0,mBJ,0.0,0.22994,,F-43m
JVASP-36197,B2AsP,FAILED_JVASP-36197.cif,1.288,1.75,mBJ,0.462,-0.21743,,P-4m2
JVASP-36248,OsN2,FAILED_JVASP-36248.cif,0.0,0.0,mBJ,0.0,0.90553,,Fm-3m
JVASP-52179,BeC2N2,FAILED_JVASP-52179.cif,6.024,7.054,mBJ,1.03,-0.18643,,P4_2nm
JVASP-9228,ZnSb2O6,FAILED_JVASP-9228.cif,1.176,1.858,mBJ,0.682,-1.41851,,Pmn2_1
JVASP-36646,LuTlTe2,FAILED_JVASP-36646.cif,0.712,1.099,mBJ,0.387,-1.03832,,R-3m
JVASP-34195,Na4CO4,FAILED_JVASP-34195.cif,2.49,6.234,mBJ,3.744,-1.54572,,I-42m
JVASP-56060,K2SnBr6,FAILED_JVASP-56060.cif,0.933,2.339,mBJ,1.406,-1.22217,,Fm-3m
JVASP-36388,ScP,FAILED_JVASP-36388.cif,1.581,2.027,mBJ,0.446,-1.05765,,F-43m
JVASP-176,SbI3,FAILED_JVASP-176.cif,2.061,2.393,mBJ,0.332,-0.3466,,R-3
JVASP-57517,Ni3Bi2S2,FAILED_JVASP-57517.cif,0.0,0.0,mBJ,0.0,-0.2915,,R-3m
JVASP-9649,CaSn2O5,FAILED_JVASP-9649.cif,1.179,2.779,mBJ,1.6,-2.01807,,Pmmn
JVASP-36551,CrN2,FAILED_JVASP-36551.cif,0.0,0.0,mBJ,0.0,0.10679,,P4_2/mnm
JVASP-36459,Ca3BiN,FAILED_JVASP-36459.cif,0.0,-0.0,mBJ,-0.0,0.65651,,Pm-3m
JVASP-22542,NaHS,FAILED_JVASP-22542.cif,3.386,5.23,mBJ,1.844,-0.75947,,R3m
JVASP-10024,MgBi2O4,FAILED_JVASP-10024.cif,1.566,2.282,mBJ,0.716,-1.69452,,Imma
JVASP-36419,Al2Ru,FAILED_JVASP-36419.cif,0.0,0.0,mBJ,0.0,-0.66203,,I4/mmm
JVASP-36553,CrN2,FAILED_JVASP-36553.cif,0.0,0.0,mBJ,0.0,0.0771,,Fd-3m
JVASP-36610,ZrHgO3,FAILED_JVASP-36610.cif,0.0,0.0,mBJ,0.0,-1.98213,,Pm-3m
JVASP-10718,Ag2SnHgSe4,FAILED_JVASP-10718.cif,0.052,0.489,mBJ,0.437,-0.15563,,Pmn2_1
JVASP-9539,ZnFeF4,FAILED_JVASP-9539.cif,0.014,0.0,mBJ,-0.014,-2.1533,,Cc
JVASP-9650,Ta2O5,FAILED_JVASP-9650.cif,2.344,3.502,mBJ,1.158,-3.01537,,Pmmn
JVASP-57439,ZnB4O7,FAILED_JVASP-57439.cif,5.719,8.111,mBJ,2.392,-2.39806,,Cmcm
JVASP-36301,CrTe,FAILED_JVASP-36301.cif,0.0,0.0,mBJ,0.0,0.05599,,Fm-3m
JVASP-56195,FeB2,FAILED_JVASP-56195.cif,0.0,0.0,mBJ,0.0,-0.0293,,P6/mmm
JVASP-54894,Pr3Sn,FAILED_JVASP-54894.cif,0.0,0.0,mBJ,0.0,-0.47106,,Pm-3m
JVASP-36498,Ba3PN,FAILED_JVASP-36498.cif,0.0,0.0,mBJ,0.0,0.25468,,Pm-3m
JVASP-35992,HoP,FAILED_JVASP-35992.cif,0.0,0.0,mBJ,0.0,-1.14345,,Pm-3m
JVASP-36389,ScSn,FAILED_JVASP-36389.cif,0.0,0.0,mBJ,0.0,0.34477,,F-43m
JVASP-57785,RbAlF4,FAILED_JVASP-57785.cif,7.523,10.266,mBJ,2.743,-3.57255,,P4/mbm
JVASP-35649,Er3AlN,FAILED_JVASP-35649.cif,0.0,0.0,mBJ,0.0,-1.03983,,Pm-3m
JVASP-30637,YSnF5,FAILED_JVASP-30637.cif,3.157,3.998,mBJ,0.841,-3.37628,,Immm
JVASP-36344,OsN,FAILED_JVASP-36344.cif,0.0,0.0,mBJ,0.0,0.56766,,F-43m
JVASP-9651,MgSn2O5,FAILED_JVASP-9651.cif,1.598,3.277,mBJ,1.679,-1.98038,,P2_1/m
JVASP-36198,AlVFeCo,FAILED_JVASP-36198.cif,0.0,0.0,mBJ,0.0,-0.41797,,F-43m
JVASP-30535,MgSb4O8,FAILED_JVASP-30535.cif,1.364,2.118,mBJ,0.754,-1.54401,,P1
JVASP-22668,K4ZnAs2,FAILED_JVASP-22668.cif,0.807,2.149,mBJ,1.342,-0.53576,,R-3m
JVASP-35787,Hf2Hg,FAILED_JVASP-35787.cif,0.0,0.0,mBJ,0.0,-0.0408,,I4/mmm
JVASP-35744,Ba2NF,FAILED_JVASP-35744.cif,0.966,2.198,mBJ,1.232,-1.92182,,R-3m
JVASP-9231,Ta2ZnO6,FAILED_JVASP-9231.cif,2.915,4.035,mBJ,1.12,-2.6911,,Imm2
JVASP-57574,AlPO4,FAILED_JVASP-57574.cif,5.63,8.625,mBJ,2.995,-2.7588,,P6_422
JVASP-35698,Ti2InCo,FAILED_JVASP-35698.cif,0.0,0.0,mBJ,0.0,-0.01453,,Fm-3m
JVASP-29800,ZnH2O2,FAILED_JVASP-29800.cif,2.665,4.417,mBJ,1.752,-1.19117,,P-3m1
JVASP-56793,SmSi2Os2,FAILED_JVASP-56793.cif,0.0,0.0,mBJ,0.0,-0.68387,,I4/mmm
JVASP-50102,ScHO2,FAILED_JVASP-50102.cif,3.708,4.973,mBJ,1.265,-2.70396,,P6_3/mmc
JVASP-35993,HoN,FAILED_JVASP-35993.cif,0.0,0.0,mBJ,0.0,-1.0476,,Pm-3m
JVASP-22543,SrAl2Te4,FAILED_JVASP-22543.cif,1.782,2.184,mBJ,0.402,-0.89675,,I422
JVASP-36391,ScN,FAILED_JVASP-36391.cif,2.576,3.68,mBJ,1.104,-1.81015,,F-43m
JVASP-41753,Rb3GePSe7,FAILED_JVASP-41753.cif,1.457,2.327,mBJ,0.87,-0.70681,,P-1
JVASP-36647,MgNiH2,FAILED_JVASP-36647.cif,0.0,0.0,mBJ,0.0,-0.20004,,P4/mmm
JVASP-10642,MgFe2O4,FAILED_JVASP-10642.cif,0.0,0.0,mBJ,0.0,-1.85046,,R3m
JVASP-36250,NpN2,FAILED_JVASP-36250.cif,0.0,0.604,mBJ,0.604,-1.30155,,Fm-3m
JVASP-14020,UFeC2,FAILED_JVASP-14020.cif,0.0,0.0,mBJ,0.0,0.23094,,I-42d
JVASP-35788,MnSn,FAILED_JVASP-35788.cif,0.0,0.0,mBJ,0.0,0.8461,,F-43m
JVASP-36154,DyTlTe2,FAILED_JVASP-36154.cif,0.673,1.021,mBJ,0.348,-1.0822,,R-3m
JVASP-38754,Ac2S3,FAILED_JVASP-38754.cif,3.124,3.979,mBJ,0.855,-2.27818,,R-3c
JVASP-36199,Al3V,FAILED_JVASP-36199.cif,0.0,0.0,mBJ,0.0,-0.14555,,Pm-3m
JVASP-36346,PdC,FAILED_JVASP-36346.cif,0.0,0.0,mBJ,0.0,1.42962,,Fm-3m
JVASP-30592,FeO2,FAILED_JVASP-30592.cif,0.0,0.0,mBJ,0.0,-1.27169,,R-3m
JVASP-42355,HfZrO4,FAILED_JVASP-42355.cif,4.243,4.917,mBJ,0.674,-3.71856,,I4_1md
JVASP-36422,TcC,FAILED_JVASP-36422.cif,0.0,0.0,mBJ,0.0,0.57825,,Fm-3m
JVASP-35830,BaMgPb,FAILED_JVASP-35830.cif,0.0,0.0,mBJ,0.0,-0.06834,,P4/nmm
JVASP-36612,CaHfO3,FAILED_JVASP-36612.cif,3.784,5.194,mBJ,1.41,-3.5036,,Pm-3m
JVASP-12002,CuHOF,FAILED_JVASP-12002.cif,0.037,0.0,mBJ,-0.037,-1.1825,,P2_1/c
JVASP-9291,CaCuO2,FAILED_JVASP-9291.cif,0.0,0.0,mBJ,0.0,-1.91394,,P-1
JVASP-57037,HoCuS2,FAILED_JVASP-57037.cif,1.728,2.062,mBJ,0.334,-1.48695,,Pnma
JVASP-35745,BaCaO2,FAILED_JVASP-35745.cif,2.139,3.608,mBJ,1.469,-2.79022,,P4/mmm
JVASP-9543,Ca2Cr3O8,FAILED_JVASP-9543.cif,0.0,0.0,mBJ,0.0,-2.50171,,C2/m
JVASP-36392,ScC,FAILED_JVASP-36392.cif,0.0,0.0,mBJ,0.0,0.32024,,F-43m
JVASP-47678,LiVC2O6,FAILED_JVASP-47678.cif,0.0,0.002,mBJ,0.002,-1.83351,,R-3
JVASP-41787,KNaPrTaO5,FAILED_JVASP-41787.cif,3.499,5.45,mBJ,1.951,-2.93526,,P4/nmm
JVASP-36251,OsC2,FAILED_JVASP-36251.cif,0.0,0.0,mBJ,0.0,0.56497,,P-6m2
JVASP-36499,Ba3SbN,FAILED_JVASP-36499.cif,0.0,0.0,mBJ,0.0,0.55432,,Pm-3m
JVASP-35888,HfGaCu,FAILED_JVASP-35888.cif,0.0,0.0,mBJ,0.0,-0.36138,,P6_3/mmc
JVASP-35653,GePbO3,FAILED_JVASP-35653.cif,0.0,0.666,mBJ,0.666,-1.47161,,Pm-3m
JVASP-51019,BaH4O3,FAILED_JVASP-51019.cif,4.367,6.747,mBJ,2.38,-1.56646,,P2_1/m
JVASP-36393,ScSi,FAILED_JVASP-36393.cif,0.0,0.0,mBJ,0.0,0.42925,,F-43m
JVASP-38942,Mg3Cr,FAILED_JVASP-38942.cif,0.0,0.0,mBJ,0.0,0.29756,,I4/mmm
JVASP-36554,Cr3N4,FAILED_JVASP-36554.cif,0.0,0.0,mBJ,0.0,-0.40413,,Fd-3m
JVASP-36648,MgTe,FAILED_JVASP-36648.cif,1.121,1.93,mBJ,0.809,-0.90155,,P6_3/mmc
JVASP-14203,RuCl3,FAILED_JVASP-14203.cif,0.0,0.0,mBJ,0.0,-0.57079,,P6_3/mcm
JVASP-36461,Ca3SbAs,FAILED_JVASP-36461.cif,0.579,1.116,mBJ,0.537,-0.99403,,Pm-3m
JVASP-36423,ZrN,FAILED_JVASP-36423.cif,0.0,0.16,mBJ,0.16,-1.55991,,P-6m2
JVASP-22544,AgAsF6,FAILED_JVASP-22544.cif,1.434,2.008,mBJ,0.574,-1.85523,,Fm-3m
JVASP-30537,TiBi2O6,FAILED_JVASP-30537.cif,0.0,0.0,mBJ,0.0,-1.60712,,Cm
JVASP-56062,ThRh2,FAILED_JVASP-56062.cif,0.0,0.0,mBJ,0.0,-0.84307,,P6_3/mmc
JVASP-36613,SiHgO3,FAILED_JVASP-36613.cif,0.0,1.073,mBJ,1.073,-1.41529,,Pm-3m
JVASP-9662,MgCu2O4,FAILED_JVASP-9662.cif,0.0,0.0,mBJ,0.0,-1.18407,,Fd-3m
JVASP-36394,ScGe,FAILED_JVASP-36394.cif,0.0,0.0,mBJ,0.0,0.17538,,F-43m
JVASP-35790,CrN,FAILED_JVASP-35790.cif,0.0,0.0,mBJ,0.0,-0.59582,,F-43m
JVASP-54897,ZnTe,FAILED_JVASP-54897.cif,1.057,2.235,mBJ,1.178,-0.45935,,F-43m
JVASP-36252,NdBiPd,FAILED_JVASP-36252.cif,0.161,0.208,mBJ,0.047,-0.95338,,F-43m
JVASP-56446,BaZn2As2,FAILED_JVASP-56446.cif,0.0,0.225,mBJ,0.225,-0.68497,,I4/mmm
JVASP-50104,DyClO,FAILED_JVASP-50104.cif,5.143,6.367,mBJ,1.224,-3.30596,,P4/nmm
JVASP-56073,ScB2,FAILED_JVASP-56073.cif,0.0,0.0,mBJ,0.0,0.05762,,Fd-3m
JVASP-42369,LiMn2B2O6,FAILED_JVASP-42369.cif,0.0,0.0,mBJ,0.0,-2.12207,,P-1
JVASP-47705,LiVH2OF5,FAILED_JVASP-47705.cif,0.006,0.0,mBJ,-0.006,-2.37985,,C2
JVASP-34174,CoP2O7,FAILED_JVASP-34174.cif,0.0,0.0,mBJ,0.0,-1.72341,,C2
JVASP-38012,Ba3Si6N2O12,FAILED_JVASP-38012.cif,4.8,7.015,mBJ,2.215,-2.84246,,P-3
JVASP-36201,AlGaN2,FAILED_JVASP-36201.cif,2.946,3.891,mBJ,0.945,-1.0979,,P-4m2
JVASP-34176,CrP2O7,FAILED_JVASP-34176.cif,0.0,0.0,mBJ,0.0,-2.11602,,C2
JVASP-34177,FeP2O7,FAILED_JVASP-34177.cif,0.0,0.0,mBJ,0.0,-1.8541,,C2
JVASP-34178,Al2FeO4,FAILED_JVASP-34178.cif,0.0,0.0,mBJ,0.0,-2.64253,,Fd-3m
JVASP-30214,Ti5Pb5O14,FAILED_JVASP-30214.cif,0.144,0.103,mBJ,-0.041,-2.41056,,P1
JVASP-4264,AlBr3,FAILED_JVASP-4264.cif,3.974,5.617,mBJ,1.643,-1.13525,,P2_1/c
JVASP-36424,TbAl,FAILED_JVASP-36424.cif,0.0,0.0,mBJ,0.0,-0.4232,,Pm-3m
JVASP-34180,MnPO4,FAILED_JVASP-34180.cif,0.0,0.0,mBJ,0.0,-2.06636,,Cmcm
JVASP-35121,BaZrO3,FAILED_JVASP-35121.cif,3.2,3.787,mBJ,0.587,-3.56418,,I4/mcm
JVASP-42536,Li2FeF4,FAILED_JVASP-42536.cif,0.0,0.0,mBJ,0.0,-2.6341,,P2_1/c
JVASP-35996,HfN,FAILED_JVASP-35996.cif,0.0,2.864,mBJ,2.864,-1.63242,,F-43m
JVASP-35746,Ba2BrN,FAILED_JVASP-35746.cif,1.187,2.088,mBJ,0.901,-1.36901,,R-3m
JVASP-35654,Hf2SN2,FAILED_JVASP-35654.cif,1.149,1.87,mBJ,0.721,-1.94013,,P-3m1
JVASP-36500,Ba3AsN,FAILED_JVASP-36500.cif,0.0,0.0,mBJ,0.0,0.31289,,Pm-3m
JVASP-56934,ZnNi,FAILED_JVASP-56934.cif,0.0,0.0,mBJ,0.0,0.73893,,F-43m
JVASP-43318,Li2MnCr3O8,FAILED_JVASP-43318.cif,0.0,0.0,mBJ,0.0,-2.13618,,P6_3mc