material_id,formula,cif_path,pbe_bandgap,hse_bandgap,gap_type,correction,formation_energy,total_energy,spacegroup
JVASP-40512,Al3Cr,FAILED_JVASP-40512.cif,0.0,0.0,mBJ,0.0,-0.12668,,I4/mmm
JVASP-40275,Pm3Si,FAILED_JVASP-40275.cif,0.0,0.0,mBJ,0.0,-0.28115,,Pm-3m
JVASP-40080,TmSbPd2,FAILED_JVASP-40080.cif,0.0,0.0,mBJ,0.0,-0.85412,,Fm-3m
JVASP-39985,MgSiRh2,FAILED_JVASP-39985.cif,0.0,0.0,mBJ,0.0,-0.71318,,Fm-3m
JVASP-31161,LiMgP,FAILED_JVASP-31161.cif,1.738,2.232,mBJ,0.494,-0.87575,,F-43m
JVASP-40611,PuSi3,FAILED_JVASP-40611.cif,0.0,0.0,mBJ,0.0,-0.34167,,P6_3/mmc
JVASP-41706,Ti2CrIr,FAILED_JVASP-41706.cif,0.0,0.0,mBJ,0.0,-0.58624,,Fm-3m
JVASP-28544,MoW2Se2S4,FAILED_JVASP-28544.cif,0.686,0.682,mBJ,-0.004,-0.78834,,R3m
JVASP-56810,CaGe2,FAILED_JVASP-56810.cif,0.0,0.0,mBJ,0.0,-0.55616,,R-3m
JVASP-25095,H,FAILED_JVASP-25095.cif,9.03,14.23,mBJ,5.2,-0.0,,I4/mmm
JVASP-40031,TiAlRh2,FAILED_JVASP-40031.cif,0.0,0.0,mBJ,0.0,-0.98004,,Fm-3m
JVASP-35520,ScV2Ga4,FAILED_JVASP-35520.cif,0.0,0.0,mBJ,0.0,-0.38756,,I4/mmm
JVASP-4507,KNO3,FAILED_JVASP-4507.cif,3.02,4.238,mBJ,1.218,-1.0562,,R3m
JVASP-40889,Pm2AgGe,FAILED_JVASP-40889.cif,0.0,0.0,mBJ,0.0,-0.56114,,Fm-3m
JVASP-41324,MgGaRh2,FAILED_JVASP-41324.cif,0.0,0.0,mBJ,0.0,-0.68308,,Fm-3m
JVASP-40227,Ca2AsAu,FAILED_JVASP-40227.cif,0.362,0.578,mBJ,0.216,-1.10117,,Fm-3m
JVASP-125,PtS2,FAILED_JVASP-125.cif,0.721,0.998,mBJ,0.277,-0.41533,,P-3m1
JVASP-39720,YbGeO3,FAILED_JVASP-39720.cif,1.216,3.509,mBJ,2.293,-2.58256,,Pm-3m
JVASP-41491,Tm2InOs,FAILED_JVASP-41491.cif,0.0,0.0,mBJ,0.0,-0.3622,,Fm-3m
JVASP-25096,Ac,FAILED_JVASP-25096.cif,0.0,0.0,mBJ,0.0,0.0,,Fm-3m
JVASP-31163,TmCuSe2,FAILED_JVASP-31163.cif,1.274,1.612,mBJ,0.338,-1.24213,,P3m1
JVASP-41457,Tm2CdOs,FAILED_JVASP-41457.cif,0.0,0.0,mBJ,0.0,-0.35798,,Fm-3m
JVASP-39899,TmCdHg2,FAILED_JVASP-39899.cif,0.0,0.0,mBJ,0.0,-0.23229,,Fm-3m
JVASP-39655,TiMn2Si,FAILED_JVASP-39655.cif,0.0,0.0,mBJ,0.0,-0.46231,,Fm-3m
JVASP-40277,LiCa2Tl,FAILED_JVASP-40277.cif,0.0,0.0,mBJ,0.0,-0.33122,,Fm-3m
JVASP-41707,Li2PrAl,FAILED_JVASP-41707.cif,0.0,0.0,mBJ,0.0,-0.2182,,Fm-3m
JVASP-40926,LiPm2Ru,FAILED_JVASP-40926.cif,0.0,0.0,mBJ,0.0,-0.20233,,Fm-3m
JVASP-40513,TaGaRu2,FAILED_JVASP-40513.cif,0.0,0.0,mBJ,0.0,-0.53848,,Fm-3m
JVASP-40565,ScMnRh2,FAILED_JVASP-40565.cif,0.0,0.0,mBJ,0.0,-0.59937,,Fm-3m
JVASP-39778,LuHfRu2,FAILED_JVASP-39778.cif,0.0,0.0,mBJ,0.0,-0.70083,,Fm-3m
JVASP-40082,LuCdPd2,FAILED_JVASP-40082.cif,0.0,0.0,mBJ,0.0,-0.79397,,Fm-3m
JVASP-31166,SnP2S6,FAILED_JVASP-31166.cif,1.038,1.861,mBJ,0.823,-0.3102,,R3
JVASP-40032,TiBeIr2,FAILED_JVASP-40032.cif,0.0,0.0,mBJ,0.0,-0.82887,,Fm-3m
JVASP-25083,As,FAILED_JVASP-25083.cif,0.0,0.0,mBJ,0.0,0.12267,,Pm-3m
JVASP-5344,SbBr3,FAILED_JVASP-5344.cif,2.851,3.716,mBJ,0.865,-0.59738,,Pnma
JVASP-29084,Te4Mo3WS4,FAILED_JVASP-29084.cif,0.0,0.0,mBJ,0.0,-0.4806,,Cm
JVASP-54846,ThGe2Os2,FAILED_JVASP-54846.cif,0.0,0.0,mBJ,0.0,-0.44509,,I4/mmm
JVASP-25815,Sm3Si2Cl5O6,FAILED_JVASP-25815.cif,4.616,6.396,mBJ,1.78,-2.89268,,C2/m
JVASP-39988,HfZnCu2,FAILED_JVASP-39988.cif,0.0,0.0,mBJ,0.0,-0.20741,,Fm-3m
JVASP-23746,HoSiIr,FAILED_JVASP-23746.cif,0.0,0.0,mBJ,0.0,-1.06607,,Pnma
JVASP-40228,TaBeRu2,FAILED_JVASP-40228.cif,0.0,0.0,mBJ,0.0,-0.35455,,Fm-3m
JVASP-29213,C,FAILED_JVASP-29213.cif,0.0,0.0,mBJ,0.0,0.012,,P6/mmm
JVASP-20287,HfCo,FAILED_JVASP-20287.cif,0.0,0.0,mBJ,0.0,-0.42906,,Pm-3m
JVASP-40772,YNiP,FAILED_JVASP-40772.cif,0.58,0.664,mBJ,0.084,-1.01605,,F-43m
JVASP-14049,KAuBr4,FAILED_JVASP-14049.cif,0.706,1.327,mBJ,0.621,-0.76323,,P2_1/c
JVASP-35382,Lu2Cr2C3,FAILED_JVASP-35382.cif,0.0,0.0,mBJ,0.0,-0.44335,,C2/m
JVASP-40334,Sc2ZnIr,FAILED_JVASP-40334.cif,0.0,0.0,mBJ,0.0,-0.80143,,Fm-3m
JVASP-29215,Si3H,FAILED_JVASP-29215.cif,0.963,1.646,mBJ,0.683,0.0365,,R-3m
JVASP-40398,Rb2Hf2O5,FAILED_JVASP-40398.cif,1.848,4.274,mBJ,2.426,-2.99571,,P4/mmm
JVASP-41326,NaTl2Cd,FAILED_JVASP-41326.cif,0.0,0.0,mBJ,0.0,-0.09357,,Fm-3m
JVASP-40813,TiCoAs,FAILED_JVASP-40813.cif,0.0,0.0,mBJ,0.0,-0.15506,,F-43m
JVASP-25606,NaUBO5,FAILED_JVASP-25606.cif,2.125,2.048,mBJ,-0.077,-2.88508,,Pbcm
JVASP-40613,ScCdRh2,FAILED_JVASP-40613.cif,0.0,0.0,mBJ,0.0,-0.63569,,Fm-3m
JVASP-25133,Mg,FAILED_JVASP-25133.cif,0.0,0.0,mBJ,0.0,0.03228,,Im-3m
JVASP-182,SiC,FAILED_JVASP-182.cif,2.303,3.077,mBJ,0.774,-0.24398,,P6_3mc
JVASP-23405,TmSiRu,FAILED_JVASP-23405.cif,0.0,0.0,mBJ,0.0,-0.8229,,Pnma
JVASP-32156,MnSb2S4,FAILED_JVASP-32156.cif,0.618,3.201,mBJ,2.583,-0.40083,,C2/m
JVASP-41631,TiMn2Al,FAILED_JVASP-41631.cif,0.0,0.0,mBJ,0.0,-0.30856,,Fm-3m
JVASP-40514,ScNbOs2,FAILED_JVASP-40514.cif,0.0,0.0,mBJ,0.0,-0.51005,,Fm-3m
JVASP-40033,TiAlRu2,FAILED_JVASP-40033.cif,0.0,0.0,mBJ,0.0,-0.755,,Fm-3m
JVASP-40466,TaGaFe2,FAILED_JVASP-40466.cif,0.0,0.0,mBJ,0.0,-0.33866,,Fm-3m
JVASP-26411,TmBi2IO4,FAILED_JVASP-26411.cif,1.575,2.81,mBJ,1.235,-2.11023,,P4/mmm
JVASP-56493,NdCr2Si2,FAILED_JVASP-56493.cif,0.0,0.0,mBJ,0.0,-0.35459,,C2/m
JVASP-56812,HoP2Ru2,FAILED_JVASP-56812.cif,0.0,0.0,mBJ,0.0,-0.98388,,I4/mmm
JVASP-39779,Lu2CuPt,FAILED_JVASP-39779.cif,0.0,0.0,mBJ,0.0,-0.89913,,Fm-3m
JVASP-14235,RbMnSe2,FAILED_JVASP-14235.cif,0.0,0.0,mBJ,0.0,-0.72168,,I-4m2
JVASP-39989,HfZnCo2,FAILED_JVASP-39989.cif,0.0,0.0,mBJ,0.0,-0.3606,,Fm-3m
JVASP-41953,BeFe2Si,FAILED_JVASP-41953.cif,0.0,0.0,mBJ,0.0,-0.35944,,Fm-3m
JVASP-28502,Te2MoW2Se2S2,FAILED_JVASP-28502.cif,0.229,0.19,mBJ,-0.039,-0.50214,,Cm
JVASP-40615,ScCdPd2,FAILED_JVASP-40615.cif,0.0,0.0,mBJ,0.0,-0.74062,,Fm-3m
JVASP-40814,ZrAgB,FAILED_JVASP-40814.cif,0.0,0.0,mBJ,0.0,0.79428,,F-43m
JVASP-41459,Ho2InAg,FAILED_JVASP-41459.cif,0.0,0.0,mBJ,0.0,-0.42259,,Fm-3m
JVASP-41365,GaFeRh2,FAILED_JVASP-41365.cif,0.0,0.0,mBJ,0.0,-0.37418,,Fm-3m
JVASP-24252,BaSrTa2O7,FAILED_JVASP-24252.cif,2.244,3.538,mBJ,1.294,-3.28841,,Immm
JVASP-25097,Ga,FAILED_JVASP-25097.cif,0.0,0.0,mBJ,0.0,0.02467,,Cmcm
JVASP-41954,Sr3CoC3N3,FAILED_JVASP-41954.cif,0.907,1.597,mBJ,0.69,-0.73819,,P6_3/m
JVASP-40472,Ba3CaI8,FAILED_JVASP-40472.cif,2.955,4.043,mBJ,1.088,-1.77541,,I4/mmm
JVASP-41327,NaSr2Tl,FAILED_JVASP-41327.cif,0.0,0.0,mBJ,0.0,-0.25326,,Fm-3m
JVASP-41493,Tm2IrOs,FAILED_JVASP-41493.cif,0.0,0.0,mBJ,0.0,-0.6786,,Fm-3m
JVASP-39780,LuInAg2,FAILED_JVASP-39780.cif,0.0,0.0,mBJ,0.0,-0.34216,,Fm-3m
JVASP-28545,MoW2Se2S4,FAILED_JVASP-28545.cif,0.696,0.634,mBJ,-0.062,-0.78824,,R3m
JVASP-39902,Li2CaGe,FAILED_JVASP-39902.cif,0.0,0.039,mBJ,0.039,-0.48785,,Fm-3m
JVASP-40473,BaCaI4,FAILED_JVASP-40473.cif,3.422,4.093,mBJ,0.671,-1.71697,,Pnna
JVASP-901,Ir,FAILED_JVASP-901.cif,0.0,0.0,mBJ,0.0,0.0,,Fm-3m
JVASP-31167,SnHgF6,FAILED_JVASP-31167.cif,2.415,5.014,mBJ,2.599,-2.10173,,R-3
JVASP-39658,TiNbTc2,FAILED_JVASP-39658.cif,0.0,0.0,mBJ,0.0,-0.44567,,Fm-3m
JVASP-40515,RbTl2Bi,FAILED_JVASP-40515.cif,0.0,0.0,mBJ,0.0,-0.23428,,Fm-3m
JVASP-26365,RbGeIO6,FAILED_JVASP-26365.cif,2.526,3.625,mBJ,1.099,-1.12971,,P312
JVASP-28503,Mo2WSe4S2,FAILED_JVASP-28503.cif,0.546,1.146,mBJ,0.6,-0.70753,,P-6m2
JVASP-41460,TmZnPd2,FAILED_JVASP-41460.cif,0.0,0.0,mBJ,0.0,-0.79428,,Fm-3m
JVASP-54453,VCuO3,FAILED_JVASP-54453.cif,0.958,0.875,mBJ,-0.083,-1.83108,,Cm
JVASP-40816,NaLiPt,FAILED_JVASP-40816.cif,0.423,0.466,mBJ,0.043,0.12455,,F-43m
JVASP-40231,Sc2CuPt,FAILED_JVASP-40231.cif,0.0,0.0,mBJ,0.0,-0.85847,,Fm-3m
JVASP-31168,AcOF,FAILED_JVASP-31168.cif,4.368,6.773,mBJ,2.405,-4.02178,,F-43m
JVASP-40570,SmH3,FAILED_JVASP-40570.cif,0.0,0.414,mBJ,0.414,-0.5788,,Fm-3m
JVASP-41496,Tm2ZnRu,FAILED_JVASP-41496.cif,0.0,0.0,mBJ,0.0,-0.46186,,Fm-3m
JVASP-40342,Sc2ZnGa,FAILED_JVASP-40342.cif,0.0,0.0,mBJ,0.0,-0.54293,,Fm-3m
JVASP-25069,Sn,FAILED_JVASP-25069.cif,0.0,0.0,mBJ,0.0,0.06354,,Fm-3m
JVASP-40413,Al2CoIr,FAILED_JVASP-40413.cif,0.0,0.0,mBJ,0.0,-0.7998,,Fm-3m
JVASP-25100,Ge,FAILED_JVASP-25100.cif,0.0,0.468,mBJ,0.468,0.02039,,P6_3/mmc
JVASP-54456,InAgW2O8,FAILED_JVASP-54456.cif,1.892,2.236,mBJ,0.344,-2.00534,,P2/c
JVASP-40035,TiGaRh2,FAILED_JVASP-40035.cif,0.0,0.0,mBJ,0.0,-0.82227,,Fm-3m
JVASP-42051,Er2ZnIr,FAILED_JVASP-42051.cif,0.0,0.0,mBJ,0.0,-0.7465,,Fm-3m
JVASP-41,SiO2,FAILED_JVASP-41.cif,5.986,8.097,mBJ,2.111,-2.90128,,P3_221
JVASP-57073,CaSiO3,FAILED_JVASP-57073.cif,4.216,5.438,mBJ,1.222,-3.03869,,Pnma
JVASP-25119,O,FAILED_JVASP-25119.cif,2.183,3.598,mBJ,1.415,0.96891,,R-3c
JVASP-40282,SrInHg2,FAILED_JVASP-40282.cif,0.0,0.0,mBJ,0.0,-0.33999,,Fm-3m
JVASP-40776,ZrSiPd,FAILED_JVASP-40776.cif,0.772,0.758,mBJ,-0.014,-0.74746,,F-43m
JVASP-28794,Te2Mo3WS6,FAILED_JVASP-28794.cif,0.154,0.514,mBJ,0.36,-0.63824,,P3m1
JVASP-26366,ErBi2ClO4,FAILED_JVASP-26366.cif,1.466,3.198,mBJ,1.732,-2.22996,,P4/mmm
JVASP-41956,LiY2Ru,FAILED_JVASP-41956.cif,0.0,0.0,mBJ,0.0,-0.31247,,Fm-3m
JVASP-40817,NbTlPt,FAILED_JVASP-40817.cif,0.0,0.0,mBJ,0.0,0.63929,,F-43m
JVASP-40516,TaGaOs2,FAILED_JVASP-40516.cif,0.0,0.0,mBJ,0.0,-0.31073,,Fm-3m
JVASP-41550,KSrCO3F,FAILED_JVASP-41550.cif,4.187,7.368,mBJ,3.181,-2.56174,,P-6m2
JVASP-25817,RuClO2F6,FAILED_JVASP-25817.cif,0.0,0.484,mBJ,0.484,-1.12902,,P2/c
JVASP-1050,Y,FAILED_JVASP-1050.cif,0.0,0.0,mBJ,0.0,0.0,,P6_3/mmc
JVASP-23408,MnNbP,FAILED_JVASP-23408.cif,0.0,0.0,mBJ,0.0,-0.7476,,Pnma
JVASP-837,Bi,FAILED_JVASP-837.cif,0.0,0.0,mBJ,0.0,0.0,,R-3m
JVASP-35524,InSiPt5,FAILED_JVASP-35524.cif,0.0,0.0,mBJ,0.0,-0.49115,,P4/mmm
JVASP-26367,NbI2O,FAILED_JVASP-26367.cif,0.681,0.846,mBJ,0.165,-1.33484,,C2
JVASP-39935,YbSmHg2,FAILED_JVASP-39935.cif,0.0,0.0,mBJ,0.0,-0.50796,,Fm-3m
JVASP-41032,Ba2InBiS5,FAILED_JVASP-41032.cif,1.419,2.492,mBJ,1.073,-1.39267,,Cmc2_1
JVASP-919,Mg,FAILED_JVASP-919.cif,0.0,0.0,mBJ,0.0,1e-05,,P6_3/mmc
JVASP-56846,Dy7Te2Ir2,FAILED_JVASP-56846.cif,0.0,0.0,mBJ,0.0,-0.96511,,Imm2
JVASP-40233,LiHfPd2,FAILED_JVASP-40233.cif,0.0,0.0,mBJ,0.0,-0.65006,,Fm-3m
JVASP-54457,ZrZn,FAILED_JVASP-54457.cif,0.093,0.0,mBJ,-0.093,-0.28908,,Pm-3m
JVASP-24254,CrCdF6,FAILED_JVASP-24254.cif,0.0,-0.0,mBJ,-0.0,-2.35347,,R-3
JVASP-39531,V3Ag,FAILED_JVASP-39531.cif,0.0,0.0,mBJ,0.0,0.35731,,Pm-3m
JVASP-59670,K2CdC4N4,FAILED_JVASP-59670.cif,6.026,7.31,mBJ,1.284,-0.1175,,Fd-3m
JVASP-41642,TiInCo2,FAILED_JVASP-41642.cif,0.0,0.0,mBJ,0.0,-0.25337,,Fm-3m
JVASP-42095,PbCl2,FAILED_JVASP-42095.cif,3.114,4.303,mBJ,1.189,-1.15873,,P4_2/mnm
JVASP-41498,Tm2IrPd,FAILED_JVASP-41498.cif,0.0,0.0,mBJ,0.0,-1.06045,,Fm-3m
JVASP-40619,ScGaCo2,FAILED_JVASP-40619.cif,0.0,0.0,mBJ,0.0,-0.47439,,Fm-3m
JVASP-42052,FeSiTc2,FAILED_JVASP-42052.cif,0.0,0.0,mBJ,0.0,-0.18868,,Fm-3m
JVASP-26369,Ba2CaB2O6,FAILED_JVASP-26369.cif,4.27,5.526,mBJ,1.256,-3.08092,,C2/m
JVASP-57075,CdHg2SO6,FAILED_JVASP-57075.cif,1.438,2.718,mBJ,1.28,-0.97251,,P-1
JVASP-39905,Al2IrRu,FAILED_JVASP-39905.cif,0.0,0.0,mBJ,0.0,-0.87887,,Fm-3m
JVASP-4621,HgSeO3,FAILED_JVASP-4621.cif,2.307,3.473,mBJ,1.166,-0.62523,,Pnma
JVASP-969,Pr,FAILED_JVASP-969.cif,0.0,0.0,mBJ,0.0,0.0,,P6_3/mmc
JVASP-56271,TlCl,FAILED_JVASP-56271.cif,2.724,3.796,mBJ,1.072,-1.04402,,Fm-3m
JVASP-40283,SrLi2Pb,FAILED_JVASP-40283.cif,0.0,0.012,mBJ,0.012,-0.44749,,Fm-3m
JVASP-4546,NbFeB,FAILED_JVASP-4546.cif,0.0,0.0,mBJ,0.0,-0.14781,,P-6m2
JVASP-41371,HfCu3,FAILED_JVASP-41371.cif,0.0,0.0,mBJ,0.0,-0.10256,,Fm-3m
JVASP-40343,Sc2ZnOs,FAILED_JVASP-40343.cif,0.0,0.0,mBJ,0.0,-0.52806,,Fm-3m
JVASP-40818,TiPtPb,FAILED_JVASP-40818.cif,0.0,0.0,mBJ,0.0,-0.12929,,F-43m
JVASP-39937,CdPt3,FAILED_JVASP-39937.cif,0.0,0.0,mBJ,0.0,-0.18585,,Pm-3m
JVASP-32164,PbCO3,FAILED_JVASP-32164.cif,3.418,4.868,mBJ,1.45,-1.47781,,Pnma
JVASP-13808,AsCl3O,FAILED_JVASP-13808.cif,2.326,3.491,mBJ,1.165,-0.61765,,P2_1/c
JVASP-40234,TaMn2Al,FAILED_JVASP-40234.cif,0.0,0.0,mBJ,0.0,-0.28705,,Fm-3m
JVASP-40573,SmZnAu2,FAILED_JVASP-40573.cif,0.0,0.0,mBJ,0.0,-0.65379,,Fm-3m
JVASP-25609,K3PO4,FAILED_JVASP-25609.cif,4.324,7.519,mBJ,3.195,-2.3597,,Pnma
JVASP-25219,Na,FAILED_JVASP-25219.cif,0.0,0.0,mBJ,0.0,0.00088,,I-43d
JVASP-42053,Pr3AgGeS7,FAILED_JVASP-42053.cif,1.791,2.5,mBJ,0.709,-1.56313,,P6_3
JVASP-25266,K,FAILED_JVASP-25266.cif,0.0,0.0,mBJ,0.0,0.00136,,P2_1/m
JVASP-25051,N,FAILED_JVASP-25051.cif,7.163,9.349,mBJ,2.186,0.00111,,Pa-3
JVASP-35384,Rb2CuF4,FAILED_JVASP-35384.cif,0.0,0.0,mBJ,0.0,-2.44387,,I4/mmm
JVASP-56272,TiSb,FAILED_JVASP-56272.cif,0.0,0.0,mBJ,0.0,-0.17825,,P6_3/mmc
JVASP-39785,YbNbRu2,FAILED_JVASP-39785.cif,0.0,0.0,mBJ,0.0,-0.24529,,Fm-3m
JVASP-29218,PPbSe3,FAILED_JVASP-29218.cif,1.748,2.354,mBJ,0.606,-0.32095,,P2_1/c
JVASP-40819,TiSiPt,FAILED_JVASP-40819.cif,0.97,0.872,mBJ,-0.098,-0.9151,,F-43m
JVASP-25101,Ga,FAILED_JVASP-25101.cif,0.0,0.0,mBJ,0.0,0.04282,,Cmce
JVASP-35385,Rb2NpO4,FAILED_JVASP-35385.cif,0.382,1.883,mBJ,1.501,-2.74793,,I4/mmm
JVASP-25177,Zr,FAILED_JVASP-25177.cif,0.0,0.0,mBJ,0.0,0.07343,,Im-3m
JVASP-40778,SrTePd,FAILED_JVASP-40778.cif,0.129,0.86,mBJ,0.731,-1.08899,,F-43m
JVASP-39536,ZnCdS2,FAILED_JVASP-39536.cif,1.373,2.873,mBJ,1.5,-0.76314,,P-4m2
JVASP-41553,YbZnAu2,FAILED_JVASP-41553.cif,0.0,0.0,mBJ,0.0,-0.71406,,Fm-3m
JVASP-20251,ErNi2,FAILED_JVASP-20251.cif,0.0,0.0,mBJ,0.0,-0.53408,,Fd-3m
JVASP-26370,SmBi2BrO4,FAILED_JVASP-26370.cif,1.368,2.861,mBJ,1.493,-2.13726,,P4/mmm
JVASP-25220,Sr,FAILED_JVASP-25220.cif,0.0,0.0,mBJ,0.0,0.14666,,I4/mcm
JVASP-25084,W,FAILED_JVASP-25084.cif,0.0,0.0,mBJ,0.0,0.09695,,Pm-3n
JVASP-4549,AgF2,FAILED_JVASP-4549.cif,0.0,0.0,mBJ,0.0,-1.22406,,P2_1/c
JVASP-32166,InSbS3,FAILED_JVASP-32166.cif,1.339,2.231,mBJ,0.892,-0.4856,,Pnma
JVASP-54469,YClO,FAILED_JVASP-54469.cif,1.893,3.166,mBJ,1.273,-2.59859,,P4/nmm
JVASP-41034,Ta2NbIr,FAILED_JVASP-41034.cif,0.0,0.0,mBJ,0.0,-0.40118,,Fm-3m
JVASP-39095,SiO2,FAILED_JVASP-39095.cif,5.684,8.586,mBJ,2.902,-2.87881,,P2_1
JVASP-56847,SmSi2Ag2,FAILED_JVASP-56847.cif,0.0,0.0,mBJ,0.0,-0.38917,,I4/mmm
JVASP-38968,TaBeO3,FAILED_JVASP-38968.cif,0.0,0.903,mBJ,0.903,-1.9558,,Pm-3m
JVASP-35480,Ho2Fe2Si2C,FAILED_JVASP-35480.cif,0.0,0.0,mBJ,0.0,-0.72769,,C2/m
JVASP-26415,Pr2Ti2S2O5,FAILED_JVASP-26415.cif,0.787,0.994,mBJ,0.207,-3.05792,,I4/mmm
JVASP-40574,SmYMg2,FAILED_JVASP-40574.cif,0.0,0.0,mBJ,0.0,-0.09949,,Fm-3m
JVASP-41464,Tm2CoOs,FAILED_JVASP-41464.cif,0.0,0.0,mBJ,0.0,-0.32256,,Fm-3m
JVASP-54472,PbCl2O4,FAILED_JVASP-54472.cif,1.182,2.68,mBJ,1.498,-0.29778,,Ccce
JVASP-41658,LiNd2Ga,FAILED_JVASP-41658.cif,0.0,0.0,mBJ,0.0,-0.29497,,Fm-3m
JVASP-40779,VSnPd,FAILED_JVASP-40779.cif,0.0,0.26,mBJ,0.26,-0.04298,,F-43m
JVASP-25222,Bi,FAILED_JVASP-25222.cif,0.0,0.0,mBJ,0.0,0.24308,,I4/mcm
JVASP-51567,YSn6Ru4,FAILED_JVASP-51567.cif,0.0,0.0,mBJ,0.0,-0.28513,,I-42m
JVASP-40093,HfSnRh2,FAILED_JVASP-40093.cif,0.0,0.0,mBJ,0.0,-0.73974,,Fm-3m
JVASP-25000,AsI2F6,FAILED_JVASP-25000.cif,0.509,1.372,mBJ,0.863,-1.63912,,C2/m
JVASP-25823,Ag2HgSI2,FAILED_JVASP-25823.cif,1.169,2.27,mBJ,1.101,-0.1507,,Cmc2_1
JVASP-42057,RbAcTe2,FAILED_JVASP-42057.cif,1.227,1.708,mBJ,0.481,-1.37802,,Fm-3m
JVASP-25134,Th,FAILED_JVASP-25134.cif,0.0,0.0,mBJ,0.0,0.14136,,Im-3m
JVASP-39940,ErNbOs2,FAILED_JVASP-39940.cif,0.0,0.0,mBJ,0.0,-0.29188,,Fm-3m
JVASP-25223,Ar,FAILED_JVASP-25223.cif,8.712,13.653,mBJ,4.941,0.00091,,P6_3/mmc
JVASP-4552,AlSn,FAILED_JVASP-4552.cif,0.0,0.0,mBJ,0.0,0.15279,,P-6m2
JVASP-25144,P,FAILED_JVASP-25144.cif,0.056,1.281,mBJ,1.225,-0.0,,Cmce
JVASP-25692,RbPS3,FAILED_JVASP-25692.cif,1.701,2.559,mBJ,0.858,-0.75176,,Immm
JVASP-25611,KBa4Sb3O,FAILED_JVASP-25611.cif,1.07,1.534,mBJ,0.464,-1.43827,,I4/mcm
JVASP-39794,LiZrPt2,FAILED_JVASP-39794.cif,0.0,0.0,mBJ,0.0,-0.95101,,Fm-3m
JVASP-25001,PrTa3O9,FAILED_JVASP-25001.cif,3.341,4.344,mBJ,1.003,-3.24113,,P2_1/m
JVASP-25102,F,FAILED_JVASP-25102.cif,2.623,3.772,mBJ,1.149,0.00083,,Cmce
JVASP-39096,SiTc2W,FAILED_JVASP-39096.cif,0.0,0.0,mBJ,0.0,-0.33037,,Fm-3m
JVASP-40475,Li5Si2BiO8,FAILED_JVASP-40475.cif,2.853,2.869,mBJ,0.016,-2.38484,,C2
JVASP-40780,MgScGa,FAILED_JVASP-40780.cif,0.149,0.205,mBJ,0.056,-0.34347,,F-43m
JVASP-42098,PmAgHg2,FAILED_JVASP-42098.cif,0.0,0.0,mBJ,0.0,-0.2663,,Fm-3m
JVASP-35440,Sm2Fe2Si2C,FAILED_JVASP-35440.cif,0.0,0.0,mBJ,0.0,-0.67322,,C2/m
JVASP-26416,DyBi2BrO4,FAILED_JVASP-26416.cif,1.461,3.21,mBJ,1.749,-2.17409,,P4/mmm
JVASP-25614,CsNiF3,FAILED_JVASP-25614.cif,0.0,0.0,mBJ,0.0,-2.10624,,P6_3/mmc
JVASP-41268,Mn2PtRh,FAILED_JVASP-41268.cif,0.0,0.0,mBJ,0.0,-0.18163,,Fm-3m
JVASP-13950,BeBr2,FAILED_JVASP-13950.cif,5.436,6.99,mBJ,1.554,-1.06886,,Ibam
JVASP-802,Hf,FAILED_JVASP-802.cif,0.0,0.0,mBJ,0.0,0.0,,P6_3/mmc
JVASP-39672,TiMn2V,FAILED_JVASP-39672.cif,0.0,0.0,mBJ,0.0,-0.28785,,Fm-3m
JVASP-56274,SnPCl9,FAILED_JVASP-56274.cif,2.65,3.936,mBJ,1.286,-0.74447,,Cmme
JVASP-41502,DySnRu2,FAILED_JVASP-41502.cif,0.0,0.0,mBJ,0.0,-0.34955,,Fm-3m
JVASP-41465,Tm2CoRu,FAILED_JVASP-41465.cif,0.0,0.0,mBJ,0.0,-0.39967,,Fm-3m
JVASP-40623,ErNbRu2,FAILED_JVASP-40623.cif,0.0,0.0,mBJ,0.0,-0.38351,,Fm-3m
JVASP-39828,BeSiIr2,FAILED_JVASP-39828.cif,0.0,0.0,mBJ,0.0,-0.57151,,Fm-3m
JVASP-26375,CdBiClO2,FAILED_JVASP-26375.cif,3.088,4.379,mBJ,1.291,-1.30322,,P2_1/m
JVASP-41269,CeMgAg2,FAILED_JVASP-41269.cif,0.0,0.0,mBJ,0.0,-0.20207,,Fm-3m
JVASP-40237,TaTiOs2,FAILED_JVASP-40237.cif,0.0,0.0,mBJ,0.0,-0.52744,,Fm-3m
JVASP-25103,Ba,FAILED_JVASP-25103.cif,0.0,0.0,mBJ,0.0,0.7595,,P6/mmm
JVASP-25722,K2SnAu2S4,FAILED_JVASP-25722.cif,1.502,2.558,mBJ,1.056,-0.75136,,P-1
JVASP-39214,MgIn3,FAILED_JVASP-39214.cif,0.0,0.0,mBJ,0.0,-0.03725,,I4/mmm
JVASP-40821,NbInPt,FAILED_JVASP-40821.cif,0.0,0.0,mBJ,0.0,0.10805,,F-43m
JVASP-57081,SiO2,FAILED_JVASP-57081.cif,4.533,7.618,mBJ,3.085,-2.70426,,I4_122
JVASP-40781,MnNbAs,FAILED_JVASP-40781.cif,0.0,0.0,mBJ,0.0,0.37862,,F-43m
JVASP-51568,HfInNi2,FAILED_JVASP-51568.cif,0.0,0.0,mBJ,0.0,-0.42642,,Fm-3m
JVASP-895,I,FAILED_JVASP-895.cif,0.915,1.617,mBJ,0.702,3e-05,,Cmce
JVASP-25270,O,FAILED_JVASP-25270.cif,0.0,0.438,mBJ,0.438,0.07394,,Fmmm
JVASP-25145,As,FAILED_JVASP-25145.cif,0.077,0.649,mBJ,0.572,0.02549,,Cmce
JVASP-14144,LuPS4,FAILED_JVASP-14144.cif,2.043,21.65,mBJ,19.607,-1.08819,,P2_1/c
JVASP-25004,Pr3Si2S8I,FAILED_JVASP-25004.cif,2.611,3.27,mBJ,0.659,-1.57452,,C2/c
JVASP-39732,Yb3SiO,FAILED_JVASP-39732.cif,0.0,0.164,mBJ,0.164,-1.81112,,C2/c
JVASP-40359,CdAgPd2,FAILED_JVASP-40359.cif,0.0,0.0,mBJ,0.0,-0.26068,,Fm-3m
JVASP-35481,CoNi2Se4,FAILED_JVASP-35481.cif,0.0,0.0,mBJ,0.0,-0.28408,,C2/m
JVASP-56275,SmAl2Zn2,FAILED_JVASP-56275.cif,0.0,0.0,mBJ,0.0,-0.46505,,I4/mmm
JVASP-263,Te2Pd,FAILED_JVASP-263.cif,0.0,0.0,mBJ,0.0,-0.31222,,P-3m1
JVASP-25071,C,FAILED_JVASP-25071.cif,0.0,0.0,mBJ,0.0,0.012,,P6/mmm
JVASP-24259,BaBiBO4,FAILED_JVASP-24259.cif,3.458,4.582,mBJ,1.124,-2.39338,,Pnma
JVASP-35526,Y2Cr2C3,FAILED_JVASP-35526.cif,0.0,0.0,mBJ,0.0,-0.41799,,C2/m
JVASP-41466,UO2,FAILED_JVASP-41466.cif,0.0,0.0,mBJ,0.0,-3.37915,,P4_2/mnm
JVASP-39945,Al2FeIr,FAILED_JVASP-39945.cif,0.0,0.0,mBJ,0.0,-0.70015,,Fm-3m
JVASP-39547,VRh,FAILED_JVASP-39547.cif,0.0,0.0,mBJ,0.0,-0.39516,,Cmmm
JVASP-40416,Pr3SiAgS7,FAILED_JVASP-40416.cif,1.749,2.511,mBJ,0.762,-1.6507,,P6_3
JVASP-41504,Tm2MgIr,FAILED_JVASP-41504.cif,0.0,0.0,mBJ,0.0,-0.55104,,Fm-3m
JVASP-28546,Te4MoW2S2,FAILED_JVASP-28546.cif,0.049,0.127,mBJ,0.078,-0.31553,,R3m
JVASP-40476,LiCuS,FAILED_JVASP-40476.cif,1.027,1.974,mBJ,0.947,-0.81818,,F-43m
JVASP-26377,LuBi2IO4,FAILED_JVASP-26377.cif,1.601,2.862,mBJ,1.261,-2.10903,,P4/mmm
JVASP-40782,CaNiTe,FAILED_JVASP-40782.cif,0.0,0.0,mBJ,0.0,-0.43762,,F-43m
JVASP-29002,Te4MoW3S4,FAILED_JVASP-29002.cif,0.088,0.0,mBJ,-0.088,-0.36409,,P3m1
JVASP-23231,TiCoO3,FAILED_JVASP-23231.cif,0.0,0.0,mBJ,0.0,-2.21031,,R-3
JVASP-25104,Cl,FAILED_JVASP-25104.cif,2.319,3.733,mBJ,1.414,0.0,,Cmce
JVASP-51574,Rb2CuCl3,FAILED_JVASP-51574.cif,2.252,3.258,mBJ,1.006,-1.55588,,Pnma
JVASP-40822,ZrPtPb,FAILED_JVASP-40822.cif,0.0,0.0,mBJ,0.0,-0.16787,,F-43m
JVASP-26378,Ba2CaTeO6,FAILED_JVASP-26378.cif,3.255,4.289,mBJ,1.034,-2.59787,,Fm-3m
JVASP-25317,Sm,FAILED_JVASP-25317.cif,0.0,0.0,mBJ,0.0,0.0257,,P6_3/mmc
JVASP-39265,K3Sc,FAILED_JVASP-39265.cif,0.0,0.0,mBJ,0.0,0.56728,,Fm-3m
JVASP-949,O,FAILED_JVASP-949.cif,1.128,2.254,mBJ,1.126,0.0,,C2/m
JVASP-39674,TiSiOs2,FAILED_JVASP-39674.cif,0.0,0.0,mBJ,0.0,-0.58493,,Fm-3m
JVASP-39215,Ho2PdRh,FAILED_JVASP-39215.cif,0.0,0.0,mBJ,0.0,-0.96129,,Fm-3m
JVASP-40360,RbSrCO3F,FAILED_JVASP-40360.cif,4.248,7.361,mBJ,3.113,-2.56904,,P-6m2
JVASP-26417,CaBiClO2,FAILED_JVASP-26417.cif,3.631,4.915,mBJ,1.284,-2.19416,,P2_1/m
JVASP-39735,CrPd3,FAILED_JVASP-39735.cif,0.0,0.0,mBJ,0.0,-0.05165,,Pm-3m
JVASP-25273,Hg,FAILED_JVASP-25273.cif,0.0,0.0,mBJ,0.0,0.0,,C2/m