material_id,formula,cif_path,pbe_bandgap,hse_bandgap,gap_type,correction,formation_energy,total_energy,spacegroup
JVASP-8194,CaP3,FAILED_JVASP-8194.cif,0.069,0.343,mBJ,0.274,-0.71976,,P-1
JVASP-57799,Mg2B2O5,FAILED_JVASP-57799.cif,5.556,7.383,mBJ,1.827,-2.85496,,P-1
JVASP-2748,ZnPtF6,FAILED_JVASP-2748.cif,2.182,2.508,mBJ,0.326,-1.81349,,R-3
JVASP-11807,CoSO4,FAILED_JVASP-11807.cif,0.032,0.0,mBJ,-0.032,-1.17708,,Cmcm
JVASP-43367,HfO2,FAILED_JVASP-43367.cif,4.033,5.601,mBJ,1.568,-3.80045,,Pbca
JVASP-42717,LiMn2B2O6,FAILED_JVASP-42717.cif,0.039,0.0,mBJ,-0.039,-2.11141,,P-1
JVASP-79146,CuN,FAILED_JVASP-79146.cif,0.0,0.0,mBJ,0.0,0.32352,,C2
JVASP-32241,SbClF8,FAILED_JVASP-32241.cif,3.188,3.881,mBJ,0.693,-1.64752,,P-1
JVASP-106981,TbAs3,FAILED_JVASP-106981.cif,0.0,0.0,mBJ,0.0,-0.52402,,Pm-3m
JVASP-12161,HgPSe3,FAILED_JVASP-12161.cif,1.004,1.935,mBJ,0.931,-0.03639,,C2/c
JVASP-21250,CaSiO3,FAILED_JVASP-21250.cif,4.068,5.366,mBJ,1.298,-3.03566,,I4/mmm
JVASP-10720,LiErO2,FAILED_JVASP-10720.cif,4.439,6.449,mBJ,2.01,-3.20487,,P2_1/c
JVASP-58258,NaYPO4F,FAILED_JVASP-58258.cif,5.901,7.463,mBJ,1.562,-3.13198,,C2/m
JVASP-13917,Na5Zr2F13,FAILED_JVASP-13917.cif,5.764,6.226,mBJ,0.462,-3.35027,,C2/m
JVASP-30177,NbOF3,FAILED_JVASP-30177.cif,3.561,4.16,mBJ,0.599,-2.97295,,P-1
JVASP-10101,Na2ZrSe3,FAILED_JVASP-10101.cif,1.346,1.9,mBJ,0.554,-1.39206,,C2/m
JVASP-51024,SrH4O3,FAILED_JVASP-51024.cif,4.534,6.896,mBJ,2.362,-1.58813,,Pm
JVASP-54735,SrH4O6,FAILED_JVASP-54735.cif,2.756,4.055,mBJ,1.299,-1.01368,,C2/c
JVASP-58433,Al2SiO5,FAILED_JVASP-58433.cif,6.109,7.234,mBJ,1.125,-3.09358,,C2/c
JVASP-29835,AlH3O3,FAILED_JVASP-29835.cif,5.337,7.348,mBJ,2.011,-1.8409,,P-1
JVASP-30384,VOF3,FAILED_JVASP-30384.cif,1.557,1.91,mBJ,0.353,-2.66981,,P2/c
JVASP-33330,SiH12C2N6F6,FAILED_JVASP-33330.cif,5.07,7.028,mBJ,1.958,-1.08873,,C2/m
JVASP-30291,Co3NiO8,FAILED_JVASP-30291.cif,0.0,0.0,mBJ,0.0,-0.93483,,R-3m
JVASP-32584,BH11C4NClF4,FAILED_JVASP-32584.cif,6.508,8.217,mBJ,1.709,-0.82155,,P2_1/m
JVASP-29414,AlH3O3,FAILED_JVASP-29414.cif,5.516,7.436,mBJ,1.92,-1.83325,,P-1
JVASP-49931,Al2O3,FAILED_JVASP-49931.cif,4.851,6.343,mBJ,1.492,-3.28282,,C2/m
JVASP-22614,SiO2,FAILED_JVASP-22614.cif,5.677,8.885,mBJ,3.208,-2.85759,,R-3
JVASP-32781,AlB3H12,FAILED_JVASP-32781.cif,6.222,8.422,mBJ,2.2,-0.09204,,Pna2_1
JVASP-78351,TiPd,FAILED_JVASP-78351.cif,0.0,0.0,mBJ,0.0,-0.53867,,P4/mmm
JVASP-43368,AgClO3,FAILED_JVASP-43368.cif,2.89,4.355,mBJ,1.465,-0.00263,,P2_13
JVASP-12048,BiBr3,FAILED_JVASP-12048.cif,2.69,3.429,mBJ,0.739,-0.74814,,P2_1/c
JVASP-57800,KCuF3,FAILED_JVASP-57800.cif,0.0,0.0,mBJ,0.0,-2.26984,,Pm-3m
JVASP-42719,Fe3O4F2,FAILED_JVASP-42719.cif,0.0,0.0,mBJ,0.0,-1.63376,,P2_1/c
JVASP-53106,TlSbS2,FAILED_JVASP-53106.cif,1.096,1.614,mBJ,0.518,-0.39235,,P-1
JVASP-29527,PbI2,FAILED_JVASP-29527.cif,2.252,3.142,mBJ,0.89,-0.6598,,P3m1
JVASP-14213,TlP5,FAILED_JVASP-14213.cif,1.128,1.567,mBJ,0.439,-0.04146,,Pmc2_1
JVASP-32381,TaTeCl9,FAILED_JVASP-32381.cif,2.524,3.465,mBJ,0.941,-1.01784,,P-1
JVASP-54701,H2SO4,FAILED_JVASP-54701.cif,6.163,8.059,mBJ,1.896,-1.10277,,Cc
JVASP-31893,Te2WCl6,FAILED_JVASP-31893.cif,0.0,0.0,mBJ,0.0,-0.67429,,P-1
JVASP-22696,Y2SeO2,FAILED_JVASP-22696.cif,2.351,3.453,mBJ,1.102,-3.34407,,P-3m1
JVASP-51025,NaHO,FAILED_JVASP-51025.cif,3.733,6.48,mBJ,2.747,-1.4212,,Pbcm
JVASP-32973,SnC2S2N2,FAILED_JVASP-32973.cif,2.479,3.241,mBJ,0.762,0.08693,,P-1
JVASP-49932,NaTaO3,FAILED_JVASP-49932.cif,2.65,5.012,mBJ,2.362,-2.7471,,Fd-3m
JVASP-29840,AlH3O3,FAILED_JVASP-29840.cif,5.408,7.299,mBJ,1.891,-1.83189,,Cm
JVASP-52251,SrH2Se2O6,FAILED_JVASP-52251.cif,4.243,5.872,mBJ,1.629,-1.41938,,P-1
JVASP-30178,TiOF2,FAILED_JVASP-30178.cif,3.252,3.585,mBJ,0.333,-3.40527,,C222_1
JVASP-43370,AlBiO3,FAILED_JVASP-43370.cif,3.195,4.162,mBJ,0.967,-2.25723,,P2_1/c
JVASP-106982,TbBi3,FAILED_JVASP-106982.cif,0.0,0.0,mBJ,0.0,-0.35956,,I4/mmm
JVASP-30387,AlH3O3,FAILED_JVASP-30387.cif,5.739,7.59,mBJ,1.851,-1.83614,,P2_1/c
JVASP-29969,Cd2Bi6O11,FAILED_JVASP-29969.cif,1.059,2.409,mBJ,1.35,-1.21621,,P1
JVASP-13785,GaTeCl,FAILED_JVASP-13785.cif,2.005,2.99,mBJ,0.985,-0.71422,,Pnnm
JVASP-30076,ZnP2H4O4,FAILED_JVASP-30076.cif,4.167,6.124,mBJ,1.957,-1.14285,,Pmma
JVASP-12769,Sn2OF2,FAILED_JVASP-12769.cif,2.642,3.784,mBJ,1.142,-2.02179,,C2/m
JVASP-2751,SrZn2P2,FAILED_JVASP-2751.cif,0.767,1.455,mBJ,0.688,-0.75915,,P-3m1
JVASP-30393,Li2NiO2,FAILED_JVASP-30393.cif,0.0,0.0,mBJ,0.0,-1.28228,,R-3m
JVASP-29467,BiTeIO3,FAILED_JVASP-29467.cif,2.358,3.208,mBJ,0.85,-1.09174,,P2_1/c
JVASP-30292,MnF3,FAILED_JVASP-30292.cif,0.0,0.26,mBJ,0.26,-2.03808,,P-31m
JVASP-12122,ScIO,FAILED_JVASP-12122.cif,1.946,2.491,mBJ,0.545,-2.7133,,C2/m
JVASP-58434,Al2SiO5,FAILED_JVASP-58434.cif,5.893,7.487,mBJ,1.594,-3.06579,,Cmcm
JVASP-33678,MgC2O4,FAILED_JVASP-33678.cif,3.544,5.162,mBJ,1.618,-1.76734,,P2_1/c
JVASP-49934,ErTlO2,FAILED_JVASP-49934.cif,1.508,2.053,mBJ,0.545,-2.60698,,R-3m
JVASP-51026,KHO,FAILED_JVASP-51026.cif,4.144,6.955,mBJ,2.811,-1.44515,,Cmc2_1
JVASP-32465,CS2NF5,FAILED_JVASP-32465.cif,2.963,3.915,mBJ,0.952,-0.92474,,P-1
JVASP-79151,CaMnO2,FAILED_JVASP-79151.cif,0.0,0.0,mBJ,0.0,-2.02645,,R-3m
JVASP-29682,CdI2,FAILED_JVASP-29682.cif,2.209,3.433,mBJ,1.224,-0.58095,,P3m1
JVASP-8195,CaC2,FAILED_JVASP-8195.cif,2.523,3.037,mBJ,0.514,-0.18343,,C2/m
JVASP-106983,ThCdPd2,FAILED_JVASP-106983.cif,0.0,0.0,mBJ,0.0,-0.71517,,Fm-3m
JVASP-79540,Ti2MnGa,FAILED_JVASP-79540.cif,0.209,0.208,mBJ,-0.001,-0.19438,,F-43m
JVASP-9876,Ca2AlBiO5,FAILED_JVASP-9876.cif,2.526,4.041,mBJ,1.515,-2.63108,,Cc
JVASP-30180,BaCuO2,FAILED_JVASP-30180.cif,0.0,0.0,mBJ,0.0,-1.7422,,Pbcm
JVASP-9671,CaSb2O4,FAILED_JVASP-9671.cif,2.649,3.697,mBJ,1.048,-1.93995,,I-4
JVASP-79517,P,FAILED_JVASP-79517.cif,0.126,0.799,mBJ,0.673,2e-05,,Cmce
JVASP-9604,NaNbO3,FAILED_JVASP-9604.cif,2.755,3.297,mBJ,0.542,-2.62043,,R3c
JVASP-49935,SrO,FAILED_JVASP-49935.cif,2.75,5.368,mBJ,2.618,-2.92329,,P6_3/mmc
JVASP-106984,TcPt,FAILED_JVASP-106984.cif,0.0,0.0,mBJ,0.0,-0.07646,,P-6m2
JVASP-57803,PbSe2O6,FAILED_JVASP-57803.cif,1.359,2.637,mBJ,1.278,-0.82311,,P2_1/c
JVASP-30181,YIO,FAILED_JVASP-30181.cif,2.242,3.224,mBJ,0.982,-2.84994,,R-3m
JVASP-79162,NaMg3,FAILED_JVASP-79162.cif,0.0,0.0,mBJ,0.0,0.06285,,Pmm2
JVASP-10102,Ba3Nb2ZnO9,FAILED_JVASP-10102.cif,2.81,3.401,mBJ,0.591,-2.90925,,P-3m1
JVASP-29529,PbI2,FAILED_JVASP-29529.cif,2.277,3.168,mBJ,0.891,-0.65947,,P3m1
JVASP-4412,CuAgTe2,FAILED_JVASP-4412.cif,0.0,0.0,mBJ,0.0,0.02397,,Pmm2
JVASP-22697,SbO2F,FAILED_JVASP-22697.cif,1.458,2.26,mBJ,0.802,-1.60625,,C2/c
JVASP-12848,InCuO2,FAILED_JVASP-12848.cif,0.431,0.529,mBJ,0.098,-1.27025,,P6_3/mmc
JVASP-78361,Mn,FAILED_JVASP-78361.cif,0.0,0.0,mBJ,0.0,0.63554,,I4_1/amd
JVASP-8196,SmCuSeO,FAILED_JVASP-8196.cif,1.474,2.345,mBJ,0.871,-2.0694,,P4/nmm
JVASP-22615,NiF2,FAILED_JVASP-22615.cif,0.0,0.0,mBJ,0.0,-1.59868,,P4_2/mnm
JVASP-14002,LiYMo3O8,FAILED_JVASP-14002.cif,1.327,1.642,mBJ,0.315,-2.54766,,P3m1
JVASP-29599,MnBr2,FAILED_JVASP-29599.cif,0.0,0.0,mBJ,0.0,-0.15511,,R-3m
JVASP-79163,Mg3Nb,FAILED_JVASP-79163.cif,0.0,0.0,mBJ,0.0,0.24266,,Pmm2
JVASP-54736,SrH4O6,FAILED_JVASP-54736.cif,2.83,4.127,mBJ,1.297,-1.01566,,C2/c
JVASP-14003,LiScMo3O8,FAILED_JVASP-14003.cif,1.236,1.618,mBJ,0.382,-2.51997,,P3m1
JVASP-12850,Na7Al3O8,FAILED_JVASP-12850.cif,3.062,5.703,mBJ,2.641,-2.39319,,P-1
JVASP-52252,AgCO3,FAILED_JVASP-52252.cif,0.0,0.0,mBJ,0.0,-0.89422,,R-3c
JVASP-10104,Ba2YNbO6,FAILED_JVASP-10104.cif,2.92,3.608,mBJ,0.688,-3.31957,,Fm-3m
JVASP-5722,SiH,FAILED_JVASP-5722.cif,2.05,2.948,mBJ,0.898,0.04792,,P-3m1
JVASP-30182,CeBrO,FAILED_JVASP-30182.cif,0.0,0.0,mBJ,0.0,-3.00383,,P4/nmm
JVASP-78364,YN,FAILED_JVASP-78364.cif,0.0,0.0,mBJ,0.0,-1.04723,,Pm-3m
JVASP-57806,Ag3SI,FAILED_JVASP-57806.cif,0.838,1.82,mBJ,0.982,-0.04699,,Pm-3m
JVASP-29468,Hg3AsS4Cl,FAILED_JVASP-29468.cif,1.334,2.627,mBJ,1.293,-0.15802,,P6_3mc
JVASP-29530,CdI2,FAILED_JVASP-29530.cif,2.108,3.32,mBJ,1.212,-0.58078,,P-3m1
JVASP-29240,AsO2,FAILED_JVASP-29240.cif,3.584,5.365,mBJ,1.781,-1.1816,,Pnma
JVASP-12798,Na3GaS3,FAILED_JVASP-12798.cif,2.888,4.666,mBJ,1.778,-1.14455,,P2_1/c
JVASP-49936,NaTmO2,FAILED_JVASP-49936.cif,4.534,6.549,mBJ,2.015,-3.10765,,R-3m
JVASP-5734,SnCl4,FAILED_JVASP-5734.cif,3.007,5.057,mBJ,2.05,-0.89544,,P2_1/c
JVASP-12770,Li2ThN2,FAILED_JVASP-12770.cif,2.293,3.006,mBJ,0.713,-1.24669,,P-3
JVASP-78368,NiHg,FAILED_JVASP-78368.cif,0.0,0.0,mBJ,0.0,0.35152,,Pm-3m
JVASP-106987,YbNdAu2,FAILED_JVASP-106987.cif,0.0,0.0,mBJ,0.0,-0.993,,Fm-3m
JVASP-12800,K3AlTe3,FAILED_JVASP-12800.cif,2.219,2.974,mBJ,0.755,-1.0222,,P2_1/c
JVASP-57182,Ca4Al6O13,FAILED_JVASP-57182.cif,4.101,6.001,mBJ,1.9,-3.15763,,I-43m
JVASP-106872,Mn2O3,FAILED_JVASP-106872.cif,0.0,0.0,mBJ,0.0,-1.75368,,R-3c
JVASP-30298,VF4,FAILED_JVASP-30298.cif,0.0,0.477,mBJ,0.477,-2.84596,,R-3
JVASP-54702,PrH3O3,FAILED_JVASP-54702.cif,3.755,6.317,mBJ,2.562,-2.00214,,P6_3/m
JVASP-79549,NaN3,FAILED_JVASP-79549.cif,4.019,5.267,mBJ,1.248,-0.15125,,C2/m
JVASP-43672,LiV4OF11,FAILED_JVASP-43672.cif,0.0,0.0,mBJ,0.0,-2.96012,,P1
JVASP-8197,Tm2Fe2Si2C,FAILED_JVASP-8197.cif,0.0,0.0,mBJ,0.0,-0.72896,,C2/m
JVASP-29580,ZrCl3,FAILED_JVASP-29580.cif,0.0,0.0,mBJ,0.0,-1.76558,,P-31m
JVASP-106988,ThInRu2,FAILED_JVASP-106988.cif,0.0,0.0,mBJ,0.0,-0.32715,,Fm-3m
JVASP-22616,PNF2,FAILED_JVASP-22616.cif,5.834,8.202,mBJ,2.368,-1.7551,,Cmc2_1
JVASP-79168,Mg3Cr,FAILED_JVASP-79168.cif,0.0,0.0,mBJ,0.0,0.50483,,Pmm2
JVASP-79550,NaI,FAILED_JVASP-79550.cif,2.831,5.179,mBJ,2.348,-1.20718,,I4_1/amd
JVASP-30183,TmClO,FAILED_JVASP-30183.cif,5.151,6.59,HSE,1.439,-3.26874,,Pmmn
JVASP-29470,AgPbBrO,FAILED_JVASP-29470.cif,0.21,2.08,mBJ,1.87,-0.72134,,P4/nmm
JVASP-5740,Na3Li3N2,FAILED_JVASP-5740.cif,0.036,1.261,mBJ,1.225,-0.1687,,Pm
JVASP-8198,HgS,FAILED_JVASP-8198.cif,1.399,2.398,mBJ,0.999,-0.01612,,P3_221
JVASP-30085,Mg5H8O9,FAILED_JVASP-30085.cif,4.094,6.225,mBJ,2.131,-1.94336,,P-3m1
JVASP-76887,Li2CuAg,FAILED_JVASP-76887.cif,1.963,2.195,mBJ,0.232,0.96076,,Immm
JVASP-106874,ZnCu2SnSe4,FAILED_JVASP-106874.cif,0.0,0.001,mBJ,0.001,-0.40053,,I-42m
JVASP-29841,AlH3O3,FAILED_JVASP-29841.cif,5.323,7.336,mBJ,2.013,-1.83739,,P1
JVASP-13754,LiTi3S6,FAILED_JVASP-13754.cif,0.0,0.0,mBJ,0.0,-1.49102,,P-3m1
JVASP-49938,Tm2TeO2,FAILED_JVASP-49938.cif,0.561,1.729,mBJ,1.168,-3.09469,,P-3m1
JVASP-28557,Mo2WSe2S4,FAILED_JVASP-28557.cif,0.689,0.865,mBJ,0.176,-0.82959,,Cm
JVASP-12851,GaAgS2,FAILED_JVASP-12851.cif,0.937,2.366,mBJ,1.429,-0.54982,,I-42d
JVASP-57184,Mg2BiAsO6,FAILED_JVASP-57184.cif,3.469,4.997,mBJ,1.528,-2.05919,,Cmcm
JVASP-106990,UF3,FAILED_JVASP-106990.cif,0.339,0.547,mBJ,0.208,-3.52568,,Fm-3m
JVASP-29344,P2Pb3O8,FAILED_JVASP-29344.cif,3.655,4.904,mBJ,1.249,-2.01046,,C2/c
JVASP-12771,Ta3N5,FAILED_JVASP-12771.cif,1.274,2.156,mBJ,0.882,-1.20506,,Cmcm
JVASP-77247,Rb2AuBr,FAILED_JVASP-77247.cif,3.285,4.551,mBJ,1.266,-0.49116,,Immm
JVASP-29532,CdI2,FAILED_JVASP-29532.cif,2.142,3.346,mBJ,1.204,-0.5814,,P-3m1
JVASP-10723,CaC2S2N2,FAILED_JVASP-10723.cif,3.433,4.386,mBJ,0.953,-0.52894,,C2/c
JVASP-29417,Te2SO7,FAILED_JVASP-29417.cif,3.634,5.28,mBJ,1.646,-1.21068,,Pmn2_1
JVASP-49939,Hf2N2O,FAILED_JVASP-49939.cif,1.126,2.002,mBJ,0.876,-2.40078,,P1
JVASP-29385,AlH3O3,FAILED_JVASP-29385.cif,5.326,7.338,mBJ,2.012,-1.83759,,P1
JVASP-30185,SmIO,FAILED_JVASP-30185.cif,3.661,4.961,mBJ,1.3,-2.86857,,P4/nmm
JVASP-78382,KP,FAILED_JVASP-78382.cif,0.0,0.0,mBJ,0.0,0.44116,,R-3m
JVASP-29388,MnSbS2Br,FAILED_JVASP-29388.cif,0.0,0.0,mBJ,0.0,-0.30461,,C2/m
JVASP-106877,NaVF3,FAILED_JVASP-106877.cif,0.0,1.806,mBJ,1.806,-2.66161,,Pm-3m
JVASP-10107,Tl2GeS3,FAILED_JVASP-10107.cif,1.484,2.151,mBJ,0.667,-0.46615,,P-1
JVASP-106993,Yb2ZnAg,FAILED_JVASP-106993.cif,0.0,0.0,mBJ,0.0,-0.45752,,Fm-3m
JVASP-57185,Y2Si2O7,FAILED_JVASP-57185.cif,4.746,6.293,mBJ,1.547,-3.39973,,P2_1/m
JVASP-9285,ZnSb4O8,FAILED_JVASP-9285.cif,1.592,2.429,mBJ,0.837,-1.38738,,Cm
JVASP-78386,MnCo,FAILED_JVASP-78386.cif,0.0,0.0,mBJ,0.0,0.04403,,Pm-3m
JVASP-54737,BeH2O2,FAILED_JVASP-54737.cif,5.745,7.591,mBJ,1.846,-1.80074,,P4_12_12
JVASP-12581,MgH2SeO5,FAILED_JVASP-12581.cif,3.646,5.105,mBJ,1.459,-1.37352,,C2/c
JVASP-11679,YCrO4,FAILED_JVASP-11679.cif,0.0,0.0,mBJ,0.0,-2.83807,,I4_1/amd
JVASP-79557,NaN3,FAILED_JVASP-79557.cif,0.82,1.271,mBJ,0.451,0.77464,,C2/m
JVASP-29418,Dy2Te5O13,FAILED_JVASP-29418.cif,3.045,4.535,mBJ,1.49,-1.87784,,P-1
JVASP-8200,ZnTe,FAILED_JVASP-8200.cif,0.298,1.292,mBJ,0.994,-0.33119,,P6_422
JVASP-29700,TePdI2,FAILED_JVASP-29700.cif,0.0,0.014,mBJ,0.014,-0.24185,,P-1
JVASP-51034,UH2O4,FAILED_JVASP-51034.cif,1.968,2.049,mBJ,0.081,-2.12757,,Cmce
JVASP-11680,Sr2ZnMoO6,FAILED_JVASP-11680.cif,2.101,2.736,mBJ,0.635,-2.58661,,Fm-3m
JVASP-28561,Te2Mo3S4,FAILED_JVASP-28561.cif,0.089,0.025,mBJ,-0.064,-0.62149,,P-6m2
JVASP-11681,SrMoO4,FAILED_JVASP-11681.cif,3.704,4.273,mBJ,0.569,-2.79122,,I4_1/a
JVASP-57813,TaBi4ClO8,FAILED_JVASP-57813.cif,1.268,2.659,mBJ,1.391,-1.79327,,P4/mmm
JVASP-78393,NaS,FAILED_JVASP-78393.cif,0.0,0.0,mBJ,0.0,-0.64297,,Pm-3m
JVASP-49940,Er2TeO2,FAILED_JVASP-49940.cif,0.643,1.928,mBJ,1.285,-3.08742,,P-3m1
JVASP-10108,Sc2SO2,FAILED_JVASP-10108.cif,2.085,2.993,mBJ,0.908,-3.27662,,P6_3/mmc
JVASP-35236,AlSi,FAILED_JVASP-35236.cif,0.0,0.0,mBJ,0.0,0.33887,,Pm-3m
JVASP-12772,NaSO2,FAILED_JVASP-12772.cif,2.256,16.071,mBJ,13.815,-1.55474,,P2/c
JVASP-79561,W,FAILED_JVASP-79561.cif,0.0,0.0,mBJ,0.0,-0.55681,,Im-3m
JVASP-8201,DyCuSeO,FAILED_JVASP-8201.cif,1.384,2.302,mBJ,0.918,-2.10338,,P4/nmm
JVASP-54703,PrH3O3,FAILED_JVASP-54703.cif,3.754,6.314,mBJ,2.56,-2.0022,,P6_3/m
JVASP-32852,TiN3Cl3,FAILED_JVASP-32852.cif,2.231,2.356,mBJ,0.125,-0.74137,,P-1
JVASP-32986,IF7,FAILED_JVASP-32986.cif,1.513,2.378,mBJ,0.865,-1.30672,,Aea2
JVASP-30306,MnC2O6,FAILED_JVASP-30306.cif,0.0,0.0,mBJ,0.0,-1.25533,,R-3
JVASP-29533,CdI2,FAILED_JVASP-29533.cif,2.189,3.373,mBJ,1.184,-0.58143,,P-3m1
JVASP-29769,GePbS3,FAILED_JVASP-29769.cif,1.658,2.597,mBJ,0.939,-0.49627,,P2_1/c
JVASP-12773,Li6Br3N,FAILED_JVASP-12773.cif,2.519,3.945,mBJ,1.426,-1.17122,,Fm-3m
JVASP-11683,KScMo2O8,FAILED_JVASP-11683.cif,3.603,4.195,mBJ,0.592,-2.57868,,P-3m1
JVASP-32854,SiBr4,FAILED_JVASP-32854.cif,3.986,5.356,mBJ,1.37,-0.76477,,P2_1/c
JVASP-31987,H8N3O6,FAILED_JVASP-31987.cif,0.918,2.373,mBJ,1.455,-0.28149,,P1
JVASP-31892,MoCl5,FAILED_JVASP-31892.cif,0.0,0.0,mBJ,0.0,-0.85106,,P-1
JVASP-29622,SnPSe3,FAILED_JVASP-29622.cif,1.506,13.993,mBJ,12.487,-0.252,,Pc
JVASP-38208,Rb3P,FAILED_JVASP-38208.cif,0.767,1.577,mBJ,0.81,-0.25908,,Fm-3m
JVASP-49942,Hf2N2O,FAILED_JVASP-49942.cif,2.448,3.481,mBJ,1.033,-2.39434,,P1
JVASP-57814,K2YNb5O15,FAILED_JVASP-57814.cif,1.731,2.286,mBJ,0.555,-2.84514,,Cmmm
JVASP-33818,BrCl,FAILED_JVASP-33818.cif,0.678,2.288,mBJ,1.61,0.0748,,P6_3mc
JVASP-37423,WSCl4,FAILED_JVASP-37423.cif,1.697,2.313,mBJ,0.616,-0.9144,,P-1
JVASP-29714,AgI,FAILED_JVASP-29714.cif,1.411,2.725,mBJ,1.314,-0.20681,,P6_3mc
JVASP-30320,FeC2O6,FAILED_JVASP-30320.cif,0.0,0.0,mBJ,0.0,-1.22115,,R-3
JVASP-30761,MgGe2WO6,FAILED_JVASP-30761.cif,0.0,2.502,mBJ,2.502,-2.01068,,C2/c
JVASP-4486,CaSiO3,FAILED_JVASP-4486.cif,4.216,5.44,mBJ,1.224,-3.03864,,Imma
JVASP-30198,CuTeO4,FAILED_JVASP-30198.cif,0.0,0.0,mBJ,0.0,-0.85583,,Cmmm
JVASP-40213,Ca2SnS4,FAILED_JVASP-40213.cif,2.171,3.282,mBJ,1.111,-1.29991,,I-4
JVASP-30466,SnAs3,FAILED_JVASP-30466.cif,0.0,0.0,mBJ,0.0,0.35937,,I4/mmm
JVASP-36715,Na2Cl,FAILED_JVASP-36715.cif,0.0,2.997,mBJ,2.997,-1.17978,,R-3m
JVASP-41419,TmMgZn2,FAILED_JVASP-41419.cif,0.0,0.0,mBJ,0.0,-0.35731,,Fm-3m
JVASP-40500,Sc2CoRu,FAILED_JVASP-40500.cif,0.0,0.0,mBJ,0.0,-0.53762,,Fm-3m
JVASP-33885,CO2,FAILED_JVASP-33885.cif,4.315,6.25,mBJ,1.935,-1.02241,,P2_1/c
JVASP-33682,BrClO,FAILED_JVASP-33682.cif,1.16,2.218,mBJ,1.058,0.16055,,R-3
JVASP-5473,ZrFeCl6,FAILED_JVASP-5473.cif,0.0,0.0,mBJ,0.0,-1.42366,,P-31c
JVASP-36717,SrTa2H2O7,FAILED_JVASP-36717.cif,2.228,3.44,mBJ,1.212,-2.60736,,I4/mmm
JVASP-37247,SmDy3,FAILED_JVASP-37247.cif,0.0,0.0,mBJ,0.0,0.01377,,I4/mmm
JVASP-30763,Ta2O5,FAILED_JVASP-30763.cif,3.113,4.379,mBJ,1.266,-2.94551,,Cmcm
JVASP-30446,NpP3,FAILED_JVASP-30446.cif,0.0,0.0,mBJ,0.0,-0.50922,,P6_3/mmc
JVASP-29621,AgAuCl4,FAILED_JVASP-29621.cif,0.559,1.04,mBJ,0.481,-0.3705,,C2/c
JVASP-36819,AgPdO2,FAILED_JVASP-36819.cif,0.0,0.0,mBJ,0.0,-0.43228,,Pmmm
JVASP-37544,Yb2BaSr,FAILED_JVASP-37544.cif,0.0,0.0,mBJ,0.0,0.02938,,Fm-3m
JVASP-33364,H7SN2O4,FAILED_JVASP-33364.cif,5.613,7.728,mBJ,2.115,-0.79784,,P-1
JVASP-36774,HAuO2,FAILED_JVASP-36774.cif,1.339,1.779,mBJ,0.44,-0.43665,,Pmn2_1
JVASP-41236,DyAl3,FAILED_JVASP-41236.cif,0.0,0.0,mBJ,0.0,-0.4556,,P6_3/mmc
JVASP-32797,PbCl4,FAILED_JVASP-32797.cif,1.445,2.856,mBJ,1.411,-0.58451,,C2/c
JVASP-38207,Rb3Tc,FAILED_JVASP-38207.cif,0.0,0.0,mBJ,0.0,1.1821,,Fm-3m
JVASP-40971,ErCdPd2,FAILED_JVASP-40971.cif,0.0,0.0,mBJ,0.0,-0.77823,,Fm-3m
JVASP-29426,InSb2S4Cl,FAILED_JVASP-29426.cif,1.579,2.228,mBJ,0.649,-0.54234,,C2/m
JVASP-4687,ZrNi2P2,FAILED_JVASP-4687.cif,0.0,0.0,mBJ,0.0,-0.8083,,I4/mmm
JVASP-266,InP,FAILED_JVASP-266.cif,0.331,1.387,mBJ,1.056,-0.22434,,F-43m
JVASP-37903,Ba3Er,FAILED_JVASP-37903.cif,0.0,0.0,mBJ,0.0,0.22676,,I4/mmm
JVASP-40502,BeSiRh2,FAILED_JVASP-40502.cif,0.0,0.0,mBJ,0.0,-0.72756,,Fm-3m
JVASP-5809,MgPSe3,FAILED_JVASP-5809.cif,2.067,2.852,mBJ,0.785,-0.6253,,R-3
JVASP-29494,Zn2In2S5,FAILED_JVASP-29494.cif,0.033,0.719,mBJ,0.686,-0.6705,,P6_3mc
JVASP-29624,YbI2,FAILED_JVASP-29624.cif,3.655,5.03,mBJ,1.375,-1.71366,,P-3m1
JVASP-33819,DyBr3,FAILED_JVASP-33819.cif,2.537,3.95,mBJ,1.413,-1.83846,,P6_3/mmc
JVASP-37545,YbOs3,FAILED_JVASP-37545.cif,0.0,0.0,mBJ,0.0,0.4281,,I4/mmm
JVASP-37362,TmPa3,FAILED_JVASP-37362.cif,0.0,0.0,mBJ,0.0,0.12445,,Pm-3m
JVASP-29958,Ba2Bi6O11,FAILED_JVASP-29958.cif,1.218,2.26,mBJ,1.042,-1.58572,,P-1
JVASP-31854,CuH12N10O8,FAILED_JVASP-31854.cif,0.731,0.933,mBJ,0.202,-0.2228,,P-1
JVASP-37757,PmTm3,FAILED_JVASP-37757.cif,0.0,0.0,mBJ,0.0,0.02268,,I4/mmm
JVASP-538,CrS,FAILED_JVASP-538.cif,0.0,0.0,mBJ,0.0,-0.52631,,P6_3/mmc
JVASP-40503,ScZnPt2,FAILED_JVASP-40503.cif,0.0,0.0,mBJ,0.0,-0.96201,,Fm-3m
JVASP-41425,UF3,FAILED_JVASP-41425.cif,0.0,0.0,mBJ,0.0,-3.52156,,I4/mmm
JVASP-5011,KMnP,FAILED_JVASP-5011.cif,0.0,0.0,mBJ,0.0,-0.45721,,P4/nmm
JVASP-36821,NaCuO2,FAILED_JVASP-36821.cif,0.471,0.655,mBJ,0.184,-1.13652,,Cmcm
JVASP-37904,BeNi3,FAILED_JVASP-37904.cif,0.0,0.0,mBJ,0.0,-0.16221,,Pm-3m
JVASP-5476,HfFeCl6,FAILED_JVASP-5476.cif,0.0,0.781,mBJ,0.781,-1.44129,,P-31c
JVASP-29499,CdBiS2Br,FAILED_JVASP-29499.cif,1.781,2.55,mBJ,0.769,-0.64145,,C2/m
JVASP-37319,Sm2InAg,FAILED_JVASP-37319.cif,0.0,0.0,mBJ,0.0,-0.40605,,Fm-3m
JVASP-41426,Lu2MgIn,FAILED_JVASP-41426.cif,0.0,0.0,mBJ,0.0,-0.25592,,Fm-3m
JVASP-13883,Ce2SbO2,FAILED_JVASP-13883.cif,0.0,0.002,mBJ,0.002,-2.82712,,I4/mmm
JVASP-29625,CdI2,FAILED_JVASP-29625.cif,2.244,3.414,mBJ,1.17,-0.58138,,P3m1
JVASP-30504,HAuO2,FAILED_JVASP-30504.cif,1.215,1.736,mBJ,0.521,-0.42267,,C2/m
JVASP-33820,DyI3,FAILED_JVASP-33820.cif,1.716,2.574,mBJ,0.858,-1.33111,,P6_3/mmc
JVASP-33822,TmBr3,FAILED_JVASP-33822.cif,2.633,4.112,mBJ,1.479,-1.8223,,P6_3/mmc
JVASP-37363,TmMnRh2,FAILED_JVASP-37363.cif,0.0,0.0,mBJ,0.0,-0.53931,,Fm-3m
JVASP-29428,NpIO,FAILED_JVASP-29428.cif,0.0,0.0,mBJ,0.0,-1.93079,,P4/nmm
JVASP-29281,CdC2N2,FAILED_JVASP-29281.cif,5.51,7.357,mBJ,1.847,0.36578,,P4_2nm
JVASP-365,ZrSe2,FAILED_JVASP-365.cif,0.337,0.92,HSE,0.583,-1.40137,,P-3m1
JVASP-37251,SmTmRu2,FAILED_JVASP-37251.cif,0.0,0.0,mBJ,0.0,-0.33786,,Fm-3m
JVASP-37905,BAs,FAILED_JVASP-37905.cif,1.361,1.845,mBJ,0.484,-0.0031,,P6_3mc
JVASP-29431,CdSbS2Cl,FAILED_JVASP-29431.cif,1.706,2.456,mBJ,0.75,-0.65584,,Pnma
JVASP-41427,TmNbOs2,FAILED_JVASP-41427.cif,0.0,0.0,mBJ,0.0,-0.32054,,Fm-3m
JVASP-40504,ScZnRh2,FAILED_JVASP-40504.cif,0.0,0.0,mBJ,0.0,-0.79417,,Fm-3m
JVASP-37760,Pm2AgRh,FAILED_JVASP-37760.cif,0.0,0.0,mBJ,0.0,-0.52514,,Fm-3m
JVASP-37958,AlH3O3,FAILED_JVASP-37958.cif,6.165,7.76,mBJ,1.595,-1.84985,,P2_12_12_1
JVASP-13822,WCl4O,FAILED_JVASP-13822.cif,0.5,2.555,mBJ,2.055,-1.24696,,I4
JVASP-41239,CaPuRh2,FAILED_JVASP-41239.cif,0.0,0.0,mBJ,0.0,-0.19798,,R-3m
JVASP-37546,Ti2H4Pd,FAILED_JVASP-37546.cif,0.0,0.0,mBJ,0.0,-0.36457,,I4/mmm
JVASP-4489,CdPS3,FAILED_JVASP-4489.cif,1.761,2.989,mBJ,1.228,-0.45061,,C2/m