material_id,formula,cif_path,pbe_bandgap,hse_bandgap,gap_type,correction,formation_energy,total_energy,spacegroup
JVASP-35934,Li3PrSb2,FAILED_JVASP-35934.cif,0.0,0.01,mBJ,0.01,-0.89417,,P-3m1
JVASP-39821,Li2AcIn,FAILED_JVASP-39821.cif,0.0,0.0,mBJ,0.0,-0.27096,,Fm-3m
JVASP-41307,NaSmHg2,FAILED_JVASP-41307.cif,0.0,0.0,mBJ,0.0,-0.2877,,Fm-3m
JVASP-4240,NdTe3,FAILED_JVASP-4240.cif,0.0,0.0,mBJ,0.0,-1.02064,,Cmcm
JVASP-35027,PdCl2,FAILED_JVASP-35027.cif,0.652,0.943,mBJ,0.291,-0.44889,,Pnnm
JVASP-56348,SrNi2Sb2,FAILED_JVASP-56348.cif,0.0,0.0,mBJ,0.0,-0.54145,,I4/mmm
JVASP-35105,ThTeAs,FAILED_JVASP-35105.cif,0.0,0.0,mBJ,0.0,-1.21809,,P4/nmm
JVASP-13969,KSnS2,FAILED_JVASP-13969.cif,0.0,1.642,mBJ,1.642,-0.83258,,R3m
JVASP-41737,LiAc2Si,FAILED_JVASP-41737.cif,0.0,0.0,mBJ,0.0,-0.20901,,Fm-3m
JVASP-52782,SrFeMoO5,FAILED_JVASP-52782.cif,0.0,0.0,mBJ,0.0,-1.99701,,P1
JVASP-23506,CeB2C2,FAILED_JVASP-23506.cif,0.0,0.0,mBJ,0.0,-0.48349,,P4/mbm
JVASP-41162,HfAlRu2,FAILED_JVASP-41162.cif,0.0,0.0,mBJ,0.0,-0.74784,,Fm-3m
JVASP-35935,Li3SmBi2,FAILED_JVASP-35935.cif,0.0,0.0,mBJ,0.0,-0.73103,,P-3m1
JVASP-54835,CdBiSe2I,FAILED_JVASP-54835.cif,1.286,1.947,mBJ,0.661,-0.48468,,C2/m
JVASP-42137,PmInRh2,FAILED_JVASP-42137.cif,0.0,0.0,mBJ,0.0,-0.64789,,Fm-3m
JVASP-35064,SmMnSi,FAILED_JVASP-35064.cif,0.0,0.0,mBJ,0.0,-0.4749,,P4/nmm
JVASP-41443,Lu2ZnOs,FAILED_JVASP-41443.cif,0.0,0.0,mBJ,0.0,-0.46272,,Fm-3m
JVASP-59640,UWC2,FAILED_JVASP-59640.cif,0.0,0.0,mBJ,0.0,0.04859,,Pnma
JVASP-41938,ScSbRh2,FAILED_JVASP-41938.cif,0.0,0.0,mBJ,0.0,-0.75449,,Fm-3m
JVASP-39766,YbPaRu2,FAILED_JVASP-39766.cif,0.0,0.0,mBJ,0.0,-0.43466,,Fm-3m
JVASP-23840,TaNiB2,FAILED_JVASP-23840.cif,0.0,0.0,mBJ,0.0,-0.59144,,Pnma
JVASP-39822,TiZnCo2,FAILED_JVASP-39822.cif,0.0,0.0,mBJ,0.0,-0.38207,,Fm-3m
JVASP-20389,FeCo,FAILED_JVASP-20389.cif,0.0,0.0,mBJ,0.0,-0.02277,,Pm-3m
JVASP-41865,Sc2CuRu,FAILED_JVASP-41865.cif,0.0,0.0,mBJ,0.0,-0.52377,,Fm-3m
JVASP-42010,SmAg3,FAILED_JVASP-42010.cif,0.0,0.0,mBJ,0.0,-0.23991,,Fm-3m
JVASP-35106,Al3GaN4,FAILED_JVASP-35106.cif,3.641,4.479,mBJ,0.838,-1.36392,,P-43m
JVASP-35936,Li3SmSb2,FAILED_JVASP-35936.cif,0.0,0.0,mBJ,0.0,-0.88487,,P-3m1
JVASP-42084,PaO2,FAILED_JVASP-42084.cif,0.0,0.0,mBJ,0.0,-3.61858,,P4_2/mnm
JVASP-51552,K3VO4,FAILED_JVASP-51552.cif,3.662,4.137,mBJ,0.475,-2.29944,,I-42m
JVASP-41900,Sc2AlTc,FAILED_JVASP-41900.cif,0.0,0.0,mBJ,0.0,-0.40704,,Fm-3m
JVASP-40912,PmH,FAILED_JVASP-40912.cif,0.0,0.0,mBJ,0.0,-0.42263,,P6_3mc
JVASP-40877,PmTlAg2,FAILED_JVASP-40877.cif,0.0,0.0,mBJ,0.0,-0.2756,,Fm-3m
JVASP-56358,Ca3SiBr2,FAILED_JVASP-56358.cif,0.0,0.0,mBJ,0.0,-1.16685,,P-3m1
JVASP-35883,Hf2GaSb3,FAILED_JVASP-35883.cif,0.0,0.0,mBJ,0.0,-0.43027,,P-4m2
JVASP-41308,NaSmTl2,FAILED_JVASP-41308.cif,0.0,0.0,mBJ,0.0,-0.29181,,Fm-3m
JVASP-59641,U2F9,FAILED_JVASP-59641.cif,0.0,0.0,mBJ,0.0,-3.72659,,I-43m
JVASP-51554,CeBi,FAILED_JVASP-51554.cif,0.0,0.0,mBJ,0.0,-0.6651,,Pm-3m
JVASP-41345,PaAlTc2,FAILED_JVASP-41345.cif,0.0,0.0,mBJ,0.0,-0.35151,,Fm-3m
JVASP-13970,USiS,FAILED_JVASP-13970.cif,0.0,0.0,mBJ,0.0,-0.45658,,P4/nmm
JVASP-35107,AlB3N4,FAILED_JVASP-35107.cif,3.889,5.017,mBJ,1.128,-1.11186,,P-43m
JVASP-41866,Sc2GaAg,FAILED_JVASP-41866.cif,0.0,0.0,mBJ,0.0,-0.49024,,Fm-3m
JVASP-42138,PmInNi2,FAILED_JVASP-42138.cif,0.0,0.0,mBJ,0.0,-0.33544,,Fm-3m
JVASP-41309,NaMgTl2,FAILED_JVASP-41309.cif,0.0,0.0,mBJ,0.0,-0.11822,,Fm-3m
JVASP-39824,Ti3Tl,FAILED_JVASP-39824.cif,0.0,0.0,mBJ,0.0,0.01082,,I4/mmm
JVASP-35029,PrCoSi,FAILED_JVASP-35029.cif,0.0,0.0,mBJ,0.0,-0.64029,,P4/nmm
JVASP-28542,Te4Mo2WS2,FAILED_JVASP-28542.cif,0.0,0.0,mBJ,0.0,-0.40305,,R3m
JVASP-35937,Li3YBi2,FAILED_JVASP-35937.cif,0.0,0.0,mBJ,0.0,-0.72682,,P-3m1
JVASP-40878,PmTlRh2,FAILED_JVASP-40878.cif,0.0,0.0,mBJ,0.0,-0.4667,,Fm-3m
JVASP-23841,NbSiPd,FAILED_JVASP-23841.cif,0.0,0.0,mBJ,0.0,-0.60598,,Pnma
JVASP-41690,GaSiRu2,FAILED_JVASP-41690.cif,0.0,0.0,mBJ,0.0,-0.37945,,Fm-3m
JVASP-41902,Sc2AlRu,FAILED_JVASP-41902.cif,0.0,0.0,mBJ,0.0,-0.56445,,Fm-3m
JVASP-13971,Nd2O3,FAILED_JVASP-13971.cif,1.577,3.138,mBJ,1.561,-3.31367,,P6/mmm
JVASP-5560,TaI2Cl2,FAILED_JVASP-5560.cif,1.05,1.531,mBJ,0.481,-0.93436,,Immm
JVASP-41867,Sc2GaCu,FAILED_JVASP-41867.cif,0.0,0.0,mBJ,0.0,-0.49737,,Fm-3m
JVASP-35512,Lu2Fe2Si2C,FAILED_JVASP-35512.cif,0.0,0.0,mBJ,0.0,-0.72486,,C2/m
JVASP-41030,Ag2Cl3,FAILED_JVASP-41030.cif,0.0,0.0,mBJ,0.0,-0.41395,,R-3c
JVASP-582,NbSe2,FAILED_JVASP-582.cif,0.0,0.0,mBJ,0.0,-0.50174,,P-6m2
JVASP-35108,Al3BN4,FAILED_JVASP-35108.cif,3.598,4.846,mBJ,1.248,-1.33715,,P-43m
JVASP-26127,ThTe2I2,FAILED_JVASP-26127.cif,0.867,1.449,mBJ,0.582,-1.03144,,C2/m
JVASP-41165,Na3UF8,FAILED_JVASP-41165.cif,0.0,3.478,mBJ,3.478,-3.3545,,I4/mmm
JVASP-50051,NaHoO2,FAILED_JVASP-50051.cif,4.479,6.199,mBJ,1.72,-3.06034,,I4_1/amd
JVASP-28865,Te3MoWS,FAILED_JVASP-28865.cif,0.0,0.058,mBJ,0.058,-0.23861,,P3m1
JVASP-30660,Ta2MoO8,FAILED_JVASP-30660.cif,0.842,1.06,mBJ,0.218,-2.41829,,C2/c
JVASP-41903,Sc2AlZn,FAILED_JVASP-41903.cif,0.0,0.0,mBJ,0.0,-0.45236,,Fm-3m
JVASP-26131,Ba3Nb2O8,FAILED_JVASP-26131.cif,4.704,5.259,mBJ,0.555,-3.0406,,R-3m
JVASP-5566,Al3Te3I,FAILED_JVASP-5566.cif,1.956,2.584,mBJ,0.628,-0.53207,,Pnma
JVASP-59659,U3Co2Ge7,FAILED_JVASP-59659.cif,0.0,0.0,mBJ,0.0,-0.2991,,Cmmm
JVASP-41446,TmTaOs2,FAILED_JVASP-41446.cif,0.0,0.0,mBJ,0.0,-0.40055,,Fm-3m
JVASP-41691,Yb2AgIr,FAILED_JVASP-41691.cif,0.0,0.0,mBJ,0.0,-0.63751,,Fm-3m
JVASP-40879,PmTlTe2,FAILED_JVASP-40879.cif,0.156,0.654,mBJ,0.498,-0.87794,,Fm-3m
JVASP-40914,Pm2CoIr,FAILED_JVASP-40914.cif,0.0,0.0,mBJ,0.0,-0.40137,,Fm-3m
JVASP-26348,SrBiClO2,FAILED_JVASP-26348.cif,3.45,4.861,mBJ,1.411,-2.18721,,Cmcm
JVASP-35377,HfV2Ga4,FAILED_JVASP-35377.cif,0.0,0.0,mBJ,0.0,-0.31118,,I4/mmm
JVASP-41868,Sc2NiIr,FAILED_JVASP-41868.cif,0.0,0.0,mBJ,0.0,-0.89292,,Fm-3m
JVASP-35109,AlGa3N4,FAILED_JVASP-35109.cif,2.42,3.579,mBJ,1.159,-0.8325,,P-43m
JVASP-42139,PmInAg2,FAILED_JVASP-42139.cif,0.0,0.0,mBJ,0.0,-0.3912,,Fm-3m
JVASP-5329,XeO2F2,FAILED_JVASP-5329.cif,1.759,2.848,mBJ,1.089,0.48366,,Cmcm
JVASP-23849,SmMnB4,FAILED_JVASP-23849.cif,0.0,0.0,mBJ,0.0,-0.56997,,Pbam
JVASP-35347,LuAlGe,FAILED_JVASP-35347.cif,0.0,0.0,mBJ,0.0,-0.61618,,Cmcm
JVASP-35427,Cr2CoTe4,FAILED_JVASP-35427.cif,0.0,0.0,mBJ,0.0,-0.10542,,C2/m
JVASP-41170,MgZrAu2,FAILED_JVASP-41170.cif,0.0,0.0,mBJ,0.0,-0.65849,,Fm-3m
JVASP-35940,LiFeAs,FAILED_JVASP-35940.cif,0.0,0.0,mBJ,0.0,0.05983,,P6_3/mmc
JVASP-56461,Ca3Al2N4,FAILED_JVASP-56461.cif,2.542,3.602,mBJ,1.06,-1.37445,,C2/c
JVASP-41483,Lu2MgTc,FAILED_JVASP-41483.cif,0.0,0.0,mBJ,0.0,-0.09054,,Fm-3m
JVASP-95,CdS,FAILED_JVASP-95.cif,1.056,2.601,mBJ,1.545,-0.67015,,P6_3mc
JVASP-23851,LuSiRh,FAILED_JVASP-23851.cif,0.0,0.0,mBJ,0.0,-1.05597,,Pnma
JVASP-59662,Li2FeCuC6N6,FAILED_JVASP-59662.cif,0.0,0.0,mBJ,0.0,0.22166,,Fm-3m
JVASP-40915,Pm2CuGe,FAILED_JVASP-40915.cif,0.0,0.0,mBJ,0.0,-0.51315,,Fm-3m
JVASP-35378,Ti3B4,FAILED_JVASP-35378.cif,0.0,0.0,mBJ,0.0,-0.92403,,Immm
JVASP-35513,ErAl4Mo2,FAILED_JVASP-35513.cif,0.0,0.0,mBJ,0.0,-0.37929,,I4/mmm
JVASP-40880,PmYMg2,FAILED_JVASP-40880.cif,0.0,0.0,mBJ,0.0,-0.10334,,Fm-3m
JVASP-39881,Li2CaSn,FAILED_JVASP-39881.cif,0.0,0.047,mBJ,0.047,-0.56531,,Fm-3m
JVASP-39882,Li2CaSi,FAILED_JVASP-39882.cif,0.0,0.048,mBJ,0.048,-0.38062,,Fm-3m
JVASP-39919,Er2InAg,FAILED_JVASP-39919.cif,0.0,0.0,mBJ,0.0,-0.42204,,Fm-3m
JVASP-35066,CaSnHg,FAILED_JVASP-35066.cif,0.0,0.0,mBJ,0.0,-0.48177,,P6_3mc
JVASP-41906,LiEr2Ir,FAILED_JVASP-41906.cif,0.0,0.0,mBJ,0.0,-0.68537,,Fm-3m
JVASP-41869,Sc2NiOs,FAILED_JVASP-41869.cif,0.0,0.0,mBJ,0.0,-0.60199,,Fm-3m
JVASP-23870,SrBrF,FAILED_JVASP-23870.cif,5.293,6.852,mBJ,1.559,-3.27318,,P4/nmm
JVASP-23872,NbSeI,FAILED_JVASP-23872.cif,0.0,0.0,mBJ,0.0,-0.7581,,F-43m
JVASP-42140,PmInPd2,FAILED_JVASP-42140.cif,0.0,0.0,mBJ,0.0,-0.7627,,Fm-3m
JVASP-41590,VZnRu2,FAILED_JVASP-41590.cif,0.0,0.0,mBJ,0.0,-0.20433,,Fm-3m
JVASP-25875,NbCl3O,FAILED_JVASP-25875.cif,2.664,3.156,mBJ,0.492,-1.69008,,P-42_1m
JVASP-41484,Lu2NiOs,FAILED_JVASP-41484.cif,0.0,0.0,mBJ,0.0,-0.53723,,Fm-3m
JVASP-41693,Lu2IrRh,FAILED_JVASP-41693.cif,0.0,0.0,mBJ,0.0,-1.1024,,Fm-3m
JVASP-23458,V2C,FAILED_JVASP-23458.cif,0.0,0.0,mBJ,0.0,-0.49664,,Pbcn
JVASP-41171,MgZrIr2,FAILED_JVASP-41171.cif,0.0,0.0,mBJ,0.0,-0.84246,,Fm-3m
JVASP-23509,NbNiP,FAILED_JVASP-23509.cif,0.0,0.0,mBJ,0.0,-0.79114,,Pnma
JVASP-41907,LiY2Al,FAILED_JVASP-41907.cif,0.0,0.0,mBJ,0.0,-0.26629,,Fm-3m
JVASP-41695,Ti2CoIr,FAILED_JVASP-41695.cif,0.0,0.0,mBJ,0.0,-0.65977,,Fm-3m
JVASP-35115,Ba2MgB6O12,FAILED_JVASP-35115.cif,5.717,7.619,mBJ,1.902,-2.84767,,R-3
JVASP-26352,KSbO3,FAILED_JVASP-26352.cif,2.8,4.182,mBJ,1.382,-1.75653,,R-3
JVASP-57059,Nd3Si2ClO8,FAILED_JVASP-57059.cif,5.317,6.456,mBJ,1.139,-3.34602,,C2/c
JVASP-41870,Sc2TcPt,FAILED_JVASP-41870.cif,0.0,0.0,mBJ,0.0,-0.81055,,Fm-3m
JVASP-39979,MgSc2Tl,FAILED_JVASP-39979.cif,0.0,0.0,mBJ,0.0,-0.19546,,Fm-3m
JVASP-23862,NaCl,FAILED_JVASP-23862.cif,5.321,8.251,mBJ,2.93,-1.93651,,Fm-3m
JVASP-23510,Cr3C2,FAILED_JVASP-23510.cif,0.0,0.0,mBJ,0.0,-0.15134,,Pnma
JVASP-58340,CaAlSiO4F,FAILED_JVASP-58340.cif,5.605,7.615,mBJ,2.01,-3.38196,,C2/c
JVASP-23550,BaPPt,FAILED_JVASP-23550.cif,0.0,0.0,mBJ,0.0,-1.14394,,P2_13
JVASP-39920,Dy2TlCd,FAILED_JVASP-39920.cif,0.0,0.0,mBJ,0.0,-0.36264,,Fm-3m
JVASP-26399,Nd2Ti2S2O5,FAILED_JVASP-26399.cif,0.762,0.937,mBJ,0.175,-3.0724,,I4/mmm
JVASP-41744,AcGaTe2,FAILED_JVASP-41744.cif,0.599,1.047,mBJ,0.448,-1.01512,,Fm-3m
JVASP-56798,HoSbPd,FAILED_JVASP-56798.cif,0.434,0.622,mBJ,0.188,-0.70458,,F-43m
JVASP-39888,Li2CeTl,FAILED_JVASP-39888.cif,0.0,0.155,mBJ,0.155,-0.11951,,Fm-3m
JVASP-40023,TiGaPd2,FAILED_JVASP-40023.cif,0.0,0.0,mBJ,0.0,-0.62948,,Fm-3m
JVASP-35942,LiO2,FAILED_JVASP-35942.cif,0.0,0.0,mBJ,0.0,-1.07444,,Pnnm
JVASP-41451,NbAlOs2,FAILED_JVASP-41451.cif,0.0,0.0,mBJ,0.0,-0.46521,,Fm-3m
JVASP-42089,Pa3Sb,FAILED_JVASP-42089.cif,0.0,0.0,mBJ,0.0,-0.31659,,Pm-3m
JVASP-42142,Li2PmAl,FAILED_JVASP-42142.cif,0.0,0.0,mBJ,0.0,-0.21669,,Fm-3m
JVASP-40918,Er2TlAg,FAILED_JVASP-40918.cif,0.0,0.0,mBJ,0.0,-0.36309,,Fm-3m
JVASP-41908,ScSiPd2,FAILED_JVASP-41908.cif,0.0,0.0,mBJ,0.0,-0.77252,,Fm-3m
JVASP-39890,PHPb2F10,FAILED_JVASP-39890.cif,5.705,7.338,mBJ,1.633,-2.45964,,P-1
JVASP-39980,MgSc2Os,FAILED_JVASP-39980.cif,0.0,0.0,mBJ,0.0,-0.3573,,Fm-3m
JVASP-40064,Ti2ZnTc,FAILED_JVASP-40064.cif,0.0,0.0,mBJ,0.0,-0.34774,,Fm-3m
JVASP-59666,U3Te4,FAILED_JVASP-59666.cif,0.0,0.0,mBJ,0.0,-0.5755,,I-43d
JVASP-35067,KMgBi,FAILED_JVASP-35067.cif,0.555,1.36,mBJ,0.805,-0.55954,,P4/nmm
JVASP-41485,Lu2NiRu,FAILED_JVASP-41485.cif,0.0,0.0,mBJ,0.0,-0.58686,,Fm-3m
JVASP-26358,HoBi2ClO4,FAILED_JVASP-26358.cif,1.436,3.105,mBJ,1.669,-2.22553,,P4/mmm
JVASP-23888,SrCl2,FAILED_JVASP-23888.cif,5.498,7.626,mBJ,2.128,-2.62686,,Fm-3m
JVASP-13974,LiTi3Se6,FAILED_JVASP-13974.cif,0.0,0.0,mBJ,0.0,-1.22191,,P-3m1
JVASP-33922,TeMoS,FAILED_JVASP-33922.cif,0.704,0.989,mBJ,0.285,-0.57919,,Pmmn
JVASP-26400,Bi2SeO2,FAILED_JVASP-26400.cif,0.513,1.252,mBJ,0.739,-1.10048,,I4/mmm
JVASP-35031,PrFeSi,FAILED_JVASP-35031.cif,0.0,0.0,mBJ,0.0,-0.55052,,P4/nmm
JVASP-57061,Cd2SiO4,FAILED_JVASP-57061.cif,1.306,2.802,mBJ,1.496,-1.85174,,Fd-3m
JVASP-40024,TiGaIr2,FAILED_JVASP-40024.cif,0.0,0.0,mBJ,0.0,-0.67991,,Fm-3m
JVASP-30665,YMnF5,FAILED_JVASP-30665.cif,0.0,0.0,mBJ,0.0,-2.8561,,Immm
JVASP-39981,MgSc2Tc,FAILED_JVASP-39981.cif,0.0,0.0,mBJ,0.0,-0.15254,,Fm-3m
JVASP-42143,Li2PmIn,FAILED_JVASP-42143.cif,0.0,0.0,mBJ,0.0,-0.32878,,Fm-3m
JVASP-25799,CaCrF5,FAILED_JVASP-25799.cif,0.0,0.0,mBJ,0.0,-3.09799,,C2/c
JVASP-41746,LiDyHg2,FAILED_JVASP-41746.cif,0.0,0.0,mBJ,0.0,-0.35306,,Fm-3m
JVASP-41909,LiEr2Os,FAILED_JVASP-41909.cif,0.0,0.0,mBJ,0.0,-0.35986,,Fm-3m
JVASP-58345,SiO2,FAILED_JVASP-58345.cif,5.672,8.108,mBJ,2.436,-2.88415,,P6_222
JVASP-41452,Tm2AgOs,FAILED_JVASP-41452.cif,0.0,0.0,mBJ,0.0,-0.43354,,Fm-3m
JVASP-63,Te2Mo,FAILED_JVASP-63.cif,0.0,0.0,mBJ,0.0,-0.22889,,P2_1/m
JVASP-26403,TbBa2BiO6,FAILED_JVASP-26403.cif,1.871,2.447,mBJ,0.576,-2.64133,,C2/m
JVASP-41603,V2TcRu,FAILED_JVASP-41603.cif,0.0,0.0,mBJ,0.0,-0.30471,,Fm-3m
JVASP-35117,BaAl2Si2O8,FAILED_JVASP-35117.cif,5.019,7.815,mBJ,2.796,-3.20228,,P-3
JVASP-57065,Tb3Si2S8I,FAILED_JVASP-57065.cif,2.459,3.111,mBJ,0.652,-1.51814,,C2/c
JVASP-26359,NdBi2IO4,FAILED_JVASP-26359.cif,1.386,2.721,mBJ,1.335,-2.04436,,P4/mmm
JVASP-39923,Dy2TlAg,FAILED_JVASP-39923.cif,0.0,0.0,mBJ,0.0,-0.36697,,Fm-3m
JVASP-189,CrS2,FAILED_JVASP-189.cif,0.0,0.0,mBJ,0.0,-0.64387,,P-3m1
JVASP-39709,GaTc2W,FAILED_JVASP-39709.cif,0.0,0.0,mBJ,0.0,-0.22964,,Fm-3m
JVASP-41354,Dy2AlZn,FAILED_JVASP-41354.cif,0.0,0.0,mBJ,0.0,-0.40972,,Fm-3m
JVASP-56474,AgBr,FAILED_JVASP-56474.cif,0.789,2.514,mBJ,1.725,-0.34708,,Fm-3m
JVASP-41486,Lu2OsPd,FAILED_JVASP-41486.cif,0.0,0.0,mBJ,0.0,-0.76591,,Fm-3m
JVASP-40067,YbLi2Si,FAILED_JVASP-40067.cif,0.0,0.058,mBJ,0.058,-0.36818,,Fm-3m
JVASP-23890,UCl4,FAILED_JVASP-23890.cif,0.0,0.0,mBJ,0.0,-1.67095,,I4_1/amd
JVASP-57066,Na2PtO3,FAILED_JVASP-57066.cif,1.723,2.115,mBJ,0.392,-1.35669,,Fddd
JVASP-4537,BaO,FAILED_JVASP-4537.cif,3.443,4.226,mBJ,0.783,-2.60435,,P4/nmm
JVASP-23513,MnSiNi,FAILED_JVASP-23513.cif,0.0,0.0,mBJ,0.0,-0.26301,,Pnma
JVASP-35069,SmCoSi,FAILED_JVASP-35069.cif,0.0,0.0,mBJ,0.0,-0.68095,,P4/nmm
JVASP-40025,TiBeRh2,FAILED_JVASP-40025.cif,0.0,0.0,mBJ,0.0,-0.79337,,Fm-3m
JVASP-23551,NbSiIr,FAILED_JVASP-23551.cif,0.0,0.0,mBJ,0.0,-0.77398,,Pnma
JVASP-40963,Ho2OsPd,FAILED_JVASP-40963.cif,0.0,0.0,mBJ,0.0,-0.67692,,Fm-3m
JVASP-41604,YAgHg2,FAILED_JVASP-41604.cif,0.0,0.0,mBJ,0.0,-0.25654,,Fm-3m
JVASP-25601,KCu4AsS4,FAILED_JVASP-25601.cif,1.336,1.563,mBJ,0.227,-0.44103,,P2_1
JVASP-41911,ScSbRu2,FAILED_JVASP-41911.cif,0.0,0.0,mBJ,0.0,-0.56464,,Fm-3m
JVASP-40223,ScZn2Ag,FAILED_JVASP-40223.cif,0.0,0.0,mBJ,0.0,-0.30447,,Fm-3m
JVASP-40128,Bi3BrO4,FAILED_JVASP-40128.cif,0.936,2.385,mBJ,1.449,-1.35085,,P4/mmm
JVASP-40885,PmZn2Cd,FAILED_JVASP-40885.cif,0.0,0.0,mBJ,0.0,-0.35911,,Fm-3m
JVASP-42047,AlCrRu2,FAILED_JVASP-42047.cif,0.0,0.0,mBJ,0.0,-0.32687,,Fm-3m
JVASP-39770,Yb3GeO,FAILED_JVASP-39770.cif,0.05,0.317,mBJ,0.267,-1.93617,,C2/c
JVASP-41487,Lu2NiIr,FAILED_JVASP-41487.cif,0.0,0.0,mBJ,0.0,-0.87006,,Fm-3m
JVASP-24999,Ba2InClO3,FAILED_JVASP-24999.cif,2.149,4.894,mBJ,2.745,-2.47666,,P4/nmm
JVASP-26360,TbBi2BrO4,FAILED_JVASP-26360.cif,1.44,3.034,mBJ,1.594,-2.16887,,P4/mmm
JVASP-40068,YbLi2Sn,FAILED_JVASP-40068.cif,0.0,0.028,mBJ,0.028,-0.55262,,Fm-3m
JVASP-54838,Sr3Ga3N5,FAILED_JVASP-54838.cif,1.596,2.814,mBJ,1.218,-0.74386,,P-1
JVASP-26405,SmBi2IO4,FAILED_JVASP-26405.cif,1.438,2.774,mBJ,1.336,-2.06734,,P4/mmm
JVASP-41189,Mg3TcH7,FAILED_JVASP-41189.cif,2.641,2.868,mBJ,0.227,-0.31217,,P6_3/mmc
JVASP-59667,V2P,FAILED_JVASP-59667.cif,0.0,0.0,mBJ,0.0,-0.75033,,Pnma
JVASP-28501,Te4Mo2WS2,FAILED_JVASP-28501.cif,0.014,0.063,mBJ,0.049,-0.34063,,R3m
JVASP-41319,NaPaO3,FAILED_JVASP-41319.cif,3.28,3.323,mBJ,0.043,-3.21624,,Pm-3m
JVASP-39646,Li2CeAl,FAILED_JVASP-39646.cif,0.0,0.0,mBJ,0.0,-0.08264,,Fm-3m
JVASP-58347,SiO2,FAILED_JVASP-58347.cif,5.738,8.191,mBJ,2.453,-2.88547,,P4_12_12
JVASP-41606,YAlAg2,FAILED_JVASP-41606.cif,0.0,0.0,mBJ,0.0,-0.37569,,Fm-3m
JVASP-56482,Tl4CdI6,FAILED_JVASP-56482.cif,1.975,2.776,mBJ,0.801,-0.66242,,P4/mnc
JVASP-42144,ThInAg2,FAILED_JVASP-42144.cif,0.0,0.0,mBJ,0.0,-0.2003,,P-1
JVASP-35118,BaAl2Si2O8,FAILED_JVASP-35118.cif,5.019,7.814,mBJ,2.795,-3.20229,,P-3
JVASP-41912,Sc2BeTc,FAILED_JVASP-41912.cif,0.0,0.0,mBJ,0.0,-0.16994,,Fm-3m
JVASP-40886,PmZn2Au,FAILED_JVASP-40886.cif,0.0,0.0,mBJ,0.0,-0.49257,,Fm-3m
JVASP-41454,Tm2AgPt,FAILED_JVASP-41454.cif,0.0,0.0,mBJ,0.0,-0.88005,,Fm-3m
JVASP-40224,Sc2CoOs,FAILED_JVASP-40224.cif,0.0,0.0,mBJ,0.0,-0.47771,,Fm-3m
JVASP-41356,Dy2AgRu,FAILED_JVASP-41356.cif,0.0,0.0,mBJ,0.0,-0.41329,,Fm-3m
JVASP-25802,Y3CuGeS7,FAILED_JVASP-25802.cif,1.722,2.294,mBJ,0.572,-1.59678,,P6_3
JVASP-56484,CuBr,FAILED_JVASP-56484.cif,0.356,1.287,mBJ,0.931,-0.14588,,Fm-3m
JVASP-231,MoSe2,FAILED_JVASP-231.cif,0.993,1.322,mBJ,0.329,-0.67092,,R3m
JVASP-35119,BaAlSi4N5O3,FAILED_JVASP-35119.cif,3.142,6.279,mBJ,3.137,-1.93361,,Cmc2_1
JVASP-41488,Tm2ZnPt,FAILED_JVASP-41488.cif,0.0,0.0,mBJ,0.0,-0.89419,,Fm-3m
JVASP-299,SnSe,FAILED_JVASP-299.cif,0.708,1.254,mBJ,0.546,-0.48235,,Pnma
JVASP-23920,BaClF,FAILED_JVASP-23920.cif,5.415,7.233,mBJ,1.818,-3.45285,,P4/nmm
JVASP-28682,Te2MoWSeS,FAILED_JVASP-28682.cif,0.071,0.0,mBJ,-0.071,-0.36555,,P3m1
JVASP-40845,PmMgAu2,FAILED_JVASP-40845.cif,0.0,0.0,mBJ,0.0,-0.8001,,Fm-3m
JVASP-41193,MnCuPd2,FAILED_JVASP-41193.cif,0.0,0.0,mBJ,0.0,-0.16846,,Fm-3m
JVASP-56805,UNiSn,FAILED_JVASP-56805.cif,0.0,0.017,mBJ,0.017,0.71611,,F-43m
JVASP-35434,Sm2Re2Si2C,FAILED_JVASP-35434.cif,0.0,0.0,mBJ,0.0,-0.59466,,C2/m
JVASP-24321,NaPPdS4,FAILED_JVASP-24321.cif,1.116,1.339,mBJ,0.223,-0.59655,,I4/mcm
JVASP-58348,SiO2,FAILED_JVASP-58348.cif,5.573,6.393,mBJ,0.82,-2.79079,,P4_2/mnm
JVASP-40028,Lu2AgOs,FAILED_JVASP-40028.cif,0.0,0.0,mBJ,0.0,-0.46395,,Fm-3m
JVASP-35380,TiMo2S4,FAILED_JVASP-35380.cif,0.0,0.0,mBJ,0.0,-1.00293,,C2/m
JVASP-57068,ZrCuF6,FAILED_JVASP-57068.cif,0.0,0.0,mBJ,0.0,-2.99436,,R-3
JVASP-25807,K2Si3SnO9,FAILED_JVASP-25807.cif,4.08,6.026,mBJ,1.946,-2.59759,,R3
JVASP-39897,TmMgHg2,FAILED_JVASP-39897.cif,0.0,0.0,mBJ,0.0,-0.3383,,Fm-3m
JVASP-20319,U3As4,FAILED_JVASP-20319.cif,0.042,0.0,mBJ,-0.042,-0.78363,,I-43d
JVASP-40922,Pm2CuRu,FAILED_JVASP-40922.cif,0.0,0.0,mBJ,0.0,-0.26471,,Fm-3m
JVASP-26409,YBi2ClO4,FAILED_JVASP-26409.cif,1.43,3.011,mBJ,1.581,-2.2254,,P4/mmm
JVASP-31158,MgIn2Te4,FAILED_JVASP-31158.cif,0.632,1.379,mBJ,0.747,-0.4878,,I-42m
JVASP-35120,BaCa3O4,FAILED_JVASP-35120.cif,2.303,3.726,mBJ,1.423,-2.94193,,Pm-3m
JVASP-41616,YMgZn2,FAILED_JVASP-41616.cif,0.0,0.0,mBJ,0.0,-0.38682,,Fm-3m
JVASP-40225,LiDy2Ru,FAILED_JVASP-40225.cif,0.0,0.0,mBJ,0.0,-0.31901,,Fm-3m
JVASP-35354,FeCoSn,FAILED_JVASP-35354.cif,0.0,0.0,mBJ,0.0,0.13849,,P6_3/mmc
JVASP-41455,Tm2AgRu,FAILED_JVASP-41455.cif,0.0,0.0,mBJ,0.0,-0.45979,,Fm-3m
JVASP-56807,NaVO3,FAILED_JVASP-56807.cif,2.827,3.294,mBJ,0.467,-2.44504,,Pnma
JVASP-41321,NaNdTl2,FAILED_JVASP-41321.cif,0.0,0.0,mBJ,0.0,-0.30292,,Fm-3m
JVASP-39927,Hf2ZnRe,FAILED_JVASP-39927.cif,0.0,0.0,mBJ,0.0,-0.32305,,Fm-3m
JVASP-35070,SmGeRu,FAILED_JVASP-35070.cif,0.0,0.0,mBJ,0.0,-0.66335,,P4/nmm
JVASP-57069,BaGa2B2O7,FAILED_JVASP-57069.cif,4.209,6.333,mBJ,2.124,-2.51501,,Cmcm
JVASP-41358,HfBeRh2,FAILED_JVASP-41358.cif,0.0,0.0,mBJ,0.0,-0.77318,,Fm-3m
JVASP-40322,LiTm2Ir,FAILED_JVASP-40322.cif,0.0,0.0,mBJ,0.0,-0.70164,,Fm-3m
JVASP-40274,Pm3Sn,FAILED_JVASP-40274.cif,0.0,0.0,mBJ,0.0,-0.46802,,Pm-3m
JVASP-24251,Na9ZrP4ClO16,FAILED_JVASP-24251.cif,4.284,4.511,mBJ,0.227,-2.46922,,P1
JVASP-35355,MgSi2,FAILED_JVASP-35355.cif,0.0,0.0,mBJ,0.0,0.16693,,Imma
JVASP-54845,NaLi2N,FAILED_JVASP-54845.cif,0.0,1.074,mBJ,1.074,-0.3124,,P6/mmm
JVASP-40888,Er2AgRu,FAILED_JVASP-40888.cif,0.0,0.0,mBJ,0.0,-0.44773,,Fm-3m
JVASP-58349,SiO2,FAILED_JVASP-58349.cif,5.985,8.097,mBJ,2.112,-2.90127,,P3_121
JVASP-41749,DyInRh2,FAILED_JVASP-41749.cif,0.0,0.0,mBJ,0.0,-0.76633,,Fm-3m
JVASP-40030,TiBeCo2,FAILED_JVASP-40030.cif,0.0,0.0,mBJ,0.0,-0.4587,,Fm-3m
JVASP-41705,HoInPd2,FAILED_JVASP-41705.cif,0.0,0.0,mBJ,0.0,-0.84233,,Fm-3m
JVASP-39718,YbGaPd2,FAILED_JVASP-39718.cif,0.0,0.0,mBJ,0.0,-0.80995,,Fm-3m
JVASP-39898,TmCdPd2,FAILED_JVASP-39898.cif,0.0,0.0,mBJ,0.0,-0.78284,,Fm-3m
JVASP-41456,Tm2AlOs,FAILED_JVASP-41456.cif,0.0,0.0,mBJ,0.0,-0.40766,,Fm-3m
JVASP-40226,AcInTe2,FAILED_JVASP-40226.cif,0.788,1.077,mBJ,0.289,-1.05514,,Fm-3m
JVASP-41359,HfCdCu2,FAILED_JVASP-41359.cif,0.0,0.0,mBJ,0.0,-0.11858,,Fm-3m
JVASP-29211,Te2Mo3WSe4S2,FAILED_JVASP-29211.cif,0.367,0.503,mBJ,0.136,-0.55596,,P3m1
JVASP-41490,Tm2HgOs,FAILED_JVASP-41490.cif,0.0,0.0,mBJ,0.0,-0.3385,,Fm-3m
JVASP-40079,Pm2SiHg,FAILED_JVASP-40079.cif,0.0,0.0,mBJ,0.0,-0.4357,,Fm-3m
JVASP-39928,DyTmMg2,FAILED_JVASP-39928.cif,0.0,0.0,mBJ,0.0,-0.05532,,Fm-3m
JVASP-56488,Sn3As4,FAILED_JVASP-56488.cif,0.362,1.138,mBJ,0.776,-0.03338,,P-43m
JVASP-41948,Rb2Zr2O5,FAILED_JVASP-41948.cif,1.885,3.489,mBJ,1.604,-2.93267,,P4/mmm
JVASP-43187,LiVFeO4,FAILED_JVASP-43187.cif,0.0,0.0,mBJ,0.0,-2.07893,,Imma
JVASP-40924,LiPm2Rh,FAILED_JVASP-40924.cif,0.0,0.0,mBJ,0.0,-0.39223,,Fm-3m
JVASP-4543,Rb3YF6,FAILED_JVASP-4543.cif,5.126,9.126,mBJ,4.0,-3.39288,,I4/mmm