material_id,formula,cif_path,pbe_bandgap,hse_bandgap,gap_type,correction,formation_energy,total_energy,spacegroup
JVASP-3972,PdS2Cl6,FAILED_JVASP-3972.cif,1.452,1.496,mBJ,0.044,-0.29251,,P-1
JVASP-100434,AlInAg2S4,FAILED_JVASP-100434.cif,1.061,2.283,mBJ,1.222,-0.66225,,I-4
JVASP-102288,PmErTl2,FAILED_JVASP-102288.cif,0.0,0.0,mBJ,0.0,-0.36871,,Fm-3m
JVASP-100154,CdPd3,FAILED_JVASP-100154.cif,0.0,0.0,mBJ,0.0,-0.24463,,Pm-3m
JVASP-101003,NaCd2In,FAILED_JVASP-101003.cif,0.0,0.0,mBJ,0.0,-0.1256,,Fm-3m
JVASP-99643,Zr3Ga,FAILED_JVASP-99643.cif,0.0,0.0,mBJ,0.0,-0.33467,,Pm-3m
JVASP-52840,RbCaH6N3,FAILED_JVASP-52840.cif,2.229,4.446,mBJ,2.217,-0.55483,,C2/c
JVASP-3237,ScTlS2,FAILED_JVASP-3237.cif,0.998,1.428,mBJ,0.43,-1.51723,,P6_3/mmc
JVASP-20081,TmAs,FAILED_JVASP-20081.cif,0.0,0.0,mBJ,0.0,-1.56028,,Fm-3m
JVASP-100658,HfInPd2,FAILED_JVASP-100658.cif,0.0,0.0,mBJ,0.0,-0.63322,,P4/mmm
JVASP-100038,AlSb,FAILED_JVASP-100038.cif,0.0,0.0,mBJ,0.0,0.03697,,I-4m2
JVASP-57046,RbCo2S2,FAILED_JVASP-57046.cif,0.0,0.0,mBJ,0.0,-0.71261,,I4/mmm
JVASP-106208,K2HgRhF6,FAILED_JVASP-106208.cif,0.0,0.398,mBJ,0.398,-2.01463,,Fm-3m
JVASP-102169,TmFeCu,FAILED_JVASP-102169.cif,0.0,0.0,mBJ,0.0,-0.14806,,Imma
JVASP-101755,SiSnN2,FAILED_JVASP-101755.cif,0.88,0.901,mBJ,0.021,-0.55687,,Ima2
JVASP-18594,TbAg2,FAILED_JVASP-18594.cif,0.0,0.0,mBJ,0.0,-0.3558,,I4/mmm
JVASP-3525,K2PtCl4,FAILED_JVASP-3525.cif,1.618,2.205,mBJ,0.587,-1.40526,,P4/mmm
JVASP-99414,K2PrAgI6,FAILED_JVASP-99414.cif,2.643,3.368,mBJ,0.725,-1.15228,,Fm-3m
JVASP-100614,PmNdZn2,FAILED_JVASP-100614.cif,0.0,0.0,mBJ,0.0,-0.36254,,Fm-3m
JVASP-100879,K2LiAuF6,FAILED_JVASP-100879.cif,0.404,1.657,mBJ,1.253,-2.286,,Fm-3m
JVASP-101655,MnCu2GeTe4,FAILED_JVASP-101655.cif,0.0,0.0,mBJ,0.0,-0.07279,,I-42m
JVASP-101164,LiErSe2,FAILED_JVASP-101164.cif,0.174,0.776,mBJ,0.602,-1.7182,,P4/mmm
JVASP-103408,TiNF,FAILED_JVASP-103408.cif,1.649,2.147,mBJ,0.498,-2.24332,,I4_1md
JVASP-103225,AcScO3,FAILED_JVASP-103225.cif,3.56,4.596,mBJ,1.036,-3.71469,,Pm-3m
JVASP-15024,CaSi2,FAILED_JVASP-15024.cif,0.0,0.0,mBJ,0.0,-0.42656,,R-3m
JVASP-100500,Pr3Zn,FAILED_JVASP-100500.cif,0.0,0.0,mBJ,0.0,-0.07096,,I4/mmm
JVASP-51110,InReGe,FAILED_JVASP-51110.cif,0.0,0.0,mBJ,0.0,0.65981,,F-43m
JVASP-57195,Ba2Mn2As2O,FAILED_JVASP-57195.cif,0.0,0.0,mBJ,0.0,-1.10561,,C2/m
JVASP-100794,ThAl2Ni3,FAILED_JVASP-100794.cif,0.0,0.0,mBJ,0.0,-0.55415,,P6/mmm
JVASP-2106,TlF,FAILED_JVASP-2106.cif,3.11,3.88,HSE,0.77,-1.83209,,Pbcm
JVASP-101224,CaZnAg,FAILED_JVASP-101224.cif,0.0,0.0,mBJ,0.0,-0.38818,,C2/m
JVASP-12057,ZrTiTe4,FAILED_JVASP-12057.cif,0.0,0.0,mBJ,0.0,-0.80493,,P2/m
JVASP-99689,Na3IrF6,FAILED_JVASP-99689.cif,2.169,2.629,mBJ,0.46,-2.26496,,Fm-3m
JVASP-16106,TbCr2Si2,FAILED_JVASP-16106.cif,0.0,0.0,mBJ,0.0,-0.37921,,I4/mmm
JVASP-100751,PmSmIn2,FAILED_JVASP-100751.cif,0.0,0.0,mBJ,0.0,-0.50868,,Fm-3m
JVASP-101060,SrH3Pd,FAILED_JVASP-101060.cif,0.0,0.0,mBJ,0.0,-0.54927,,Pm-3m
JVASP-15047,CdAu,FAILED_JVASP-15047.cif,0.0,0.0,mBJ,0.0,-0.17486,,Pm-3m
JVASP-100880,K2YInF6,FAILED_JVASP-100880.cif,3.203,4.407,mBJ,1.204,-3.17542,,Fm-3m
JVASP-99516,CaBC,FAILED_JVASP-99516.cif,0.0,0.0,mBJ,0.0,-0.20946,,P6_3/mmc
JVASP-103318,Ti2FeTc,FAILED_JVASP-103318.cif,0.0,0.0,mBJ,0.0,-0.47905,,Fm-3m
JVASP-102289,PuPbO3,FAILED_JVASP-102289.cif,0.0,0.0,mBJ,0.0,-2.43164,,Pm-3m
JVASP-101004,NaHg3,FAILED_JVASP-101004.cif,0.0,0.0,mBJ,0.0,-0.04894,,Fm-3m
JVASP-15757,Sm3AlC,FAILED_JVASP-15757.cif,0.0,0.0,mBJ,0.0,-0.31658,,Pm-3m
JVASP-28386,TaSe2,FAILED_JVASP-28386.cif,0.0,0.0,mBJ,0.0,-0.81731,,P6_3/mmc
JVASP-101609,SrPd3,FAILED_JVASP-101609.cif,0.0,0.0,mBJ,0.0,-0.42613,,P6_3/mmc
JVASP-101225,CaFeSi2Rh,FAILED_JVASP-101225.cif,0.0,0.0,mBJ,0.0,-0.70899,,I-4m2
JVASP-100696,Rb3SbF6,FAILED_JVASP-100696.cif,3.979,5.344,mBJ,1.365,-2.70852,,Fm-3m
JVASP-99644,CaH2,FAILED_JVASP-99644.cif,0.896,2.231,mBJ,1.335,-0.62333,,P6_3/mmc
JVASP-20106,MgRh,FAILED_JVASP-20106.cif,0.0,0.0,mBJ,0.0,-0.50443,,Pm-3m
JVASP-22718,Rb2GeF6,FAILED_JVASP-22718.cif,5.99,8.369,mBJ,2.379,-2.89767,,P-3m1
JVASP-99845,SrScO3,FAILED_JVASP-99845.cif,0.0,0.0,mBJ,0.0,-3.04713,,Pm-3m
JVASP-100039,AlVNi2,FAILED_JVASP-100039.cif,0.0,0.0,mBJ,0.0,-0.3919,,P4/mmm
JVASP-101417,YBi3,FAILED_JVASP-101417.cif,0.0,0.0,mBJ,0.0,-0.36679,,I4/mmm
JVASP-101113,SrCaAl4,FAILED_JVASP-101113.cif,0.0,0.0,mBJ,0.0,-0.36519,,F-43m
JVASP-4252,AuCl3,FAILED_JVASP-4252.cif,1.118,1.901,mBJ,0.783,-0.24656,,P2_1/c
JVASP-2166,KTe,FAILED_JVASP-2166.cif,0.626,1.746,mBJ,1.12,-0.90907,,P6_3/mmc
JVASP-100840,ErBPtRh2,FAILED_JVASP-100840.cif,0.0,0.0,mBJ,0.0,-0.87812,,P4/mmm
JVASP-102112,Ho2ZnCu,FAILED_JVASP-102112.cif,0.0,0.0,mBJ,0.0,-0.34179,,Fm-3m
JVASP-4858,TmAgP2Se6,FAILED_JVASP-4858.cif,1.667,2.009,mBJ,0.342,-0.54342,,P-31c
JVASP-100298,RbCo2As2,FAILED_JVASP-100298.cif,0.0,0.0,mBJ,0.0,-0.43062,,I4/mmm
JVASP-103605,Ho2MgRu,FAILED_JVASP-103605.cif,0.0,0.0,mBJ,0.0,-0.25536,,Fm-3m
JVASP-101789,H2C4S,FAILED_JVASP-101789.cif,0.51,0.537,mBJ,0.027,0.12314,,P-1
JVASP-99468,Mg2NiRh,FAILED_JVASP-99468.cif,0.0,0.0,mBJ,0.0,-0.40006,,Fm-3m
JVASP-2994,CaMg2Sb2,FAILED_JVASP-2994.cif,0.901,1.227,mBJ,0.326,-0.79933,,P-3m1
JVASP-102980,ScAg3,FAILED_JVASP-102980.cif,0.0,0.0,mBJ,0.0,-0.20654,,Fm-3m
JVASP-15159,HoFe2Si2,FAILED_JVASP-15159.cif,0.0,0.0,mBJ,0.0,-0.67103,,I4/mmm
JVASP-2544,KNbO3,FAILED_JVASP-2544.cif,2.089,2.596,mBJ,0.507,-2.67937,,R3m
JVASP-1960,Ca2NCl,FAILED_JVASP-1960.cif,2.312,3.295,mBJ,0.983,-1.79758,,R-3m
JVASP-22567,SnO2,FAILED_JVASP-22567.cif,0.895,2.393,mBJ,1.498,-1.78586,,P4_2/mnm
JVASP-100559,K2PtBr6,FAILED_JVASP-100559.cif,0.0,0.0,mBJ,0.0,-0.7282,,Immm
JVASP-14893,CoSi,FAILED_JVASP-14893.cif,0.0,0.0,mBJ,0.0,-0.49735,,P2_13
JVASP-102906,NaCo2BiO6,FAILED_JVASP-102906.cif,0.0,0.0,mBJ,0.0,-1.1903,,R3
JVASP-101706,Li2MgZn,FAILED_JVASP-101706.cif,0.0,0.0,mBJ,0.0,-0.20156,,F-43m
JVASP-1441,ScNiSb,FAILED_JVASP-1441.cif,0.263,0.293,mBJ,0.03,-0.92287,,F-43m
JVASP-99603,Ta2MoIr,FAILED_JVASP-99603.cif,0.0,0.0,mBJ,0.0,-0.39337,,Fm-3m
JVASP-100796,TbNiGe,FAILED_JVASP-100796.cif,0.0,0.0,mBJ,0.0,-0.72898,,C2/m
JVASP-18715,HfNi2,FAILED_JVASP-18715.cif,0.0,0.0,mBJ,0.0,-0.49253,,Fd-3m
JVASP-101061,CuSnPd2,FAILED_JVASP-101061.cif,0.0,0.0,mBJ,0.0,-0.34003,,P4/mmm
JVASP-99992,FeAgTe2,FAILED_JVASP-99992.cif,0.0,0.0,mBJ,0.0,0.07059,,P-3m1
JVASP-101226,Be4AlFe,FAILED_JVASP-101226.cif,0.0,0.0,mBJ,0.0,-0.24049,,F-43m
JVASP-20082,TaB2,FAILED_JVASP-20082.cif,0.0,0.0,mBJ,0.0,-0.59576,,P6/mmm
JVASP-20107,MgSc,FAILED_JVASP-20107.cif,0.0,0.0,mBJ,0.0,-0.0316,,Pm-3m
JVASP-101758,SrPb2N2,FAILED_JVASP-101758.cif,0.313,0.793,mBJ,0.48,-0.28457,,P-3m1
JVASP-3531,Na4I2O,FAILED_JVASP-3531.cif,2.488,3.706,mBJ,1.218,-1.40785,,I4/mmm
JVASP-100299,TbBiPd,FAILED_JVASP-100299.cif,0.0,0.078,mBJ,0.078,-0.95328,,F-43m
JVASP-100617,Sc3Sn,FAILED_JVASP-100617.cif,0.0,0.0,mBJ,0.0,-0.45884,,P6_3/mmc
JVASP-106224,K2TiCuF6,FAILED_JVASP-106224.cif,0.0,0.519,mBJ,0.519,-2.82153,,Fm-3m
JVASP-15758,Na2LiN,FAILED_JVASP-15758.cif,0.0,0.88,mBJ,0.88,-0.09356,,P6/mmm
JVASP-16061,SrSnP,FAILED_JVASP-16061.cif,0.0,0.0,mBJ,0.0,-0.84909,,P4/nmm
JVASP-100503,Sc2GaPd,FAILED_JVASP-100503.cif,0.0,0.0,mBJ,0.0,-0.76789,,Fm-3m
JVASP-102290,ScAu3,FAILED_JVASP-102290.cif,0.0,0.0,mBJ,0.0,-0.64482,,Fm-3m
JVASP-17904,YSb,FAILED_JVASP-17904.cif,0.0,0.0,mBJ,0.0,-1.23708,,Fm-3m
JVASP-101500,K2AlAuF6,FAILED_JVASP-101500.cif,1.221,3.123,mBJ,1.902,-2.77994,,Fm-3m
JVASP-101169,Li2MgZrO4,FAILED_JVASP-101169.cif,3.152,4.018,mBJ,0.866,-2.98927,,I-4m2
JVASP-22685,CdTe,FAILED_JVASP-22685.cif,0.526,1.757,mBJ,1.231,-0.40425,,P6_3mc
JVASP-1639,CdHgO2,FAILED_JVASP-1639.cif,0.463,1.617,mBJ,1.154,-0.71377,,C2/m
JVASP-22568,KIO3,FAILED_JVASP-22568.cif,2.731,4.356,mBJ,1.625,-1.0556,,R3m
JVASP-2760,BaCd2P2,FAILED_JVASP-2760.cif,0.58,1.364,mBJ,0.784,-0.64265,,P-3m1
JVASP-100841,ErAgSn2,FAILED_JVASP-100841.cif,0.0,0.0,mBJ,0.0,-0.41329,,P4/mmm
JVASP-13893,ZrNiP,FAILED_JVASP-13893.cif,0.0,0.0,mBJ,0.0,-0.63976,,P6_3/mmc
JVASP-103710,HoCdIn,FAILED_JVASP-103710.cif,0.0,0.0,mBJ,0.0,-0.39012,,P-3m1
JVASP-101548,Ca2InHg,FAILED_JVASP-101548.cif,0.0,0.0,mBJ,0.0,-0.5428,,Fm-3m
JVASP-14949,NpC,FAILED_JVASP-14949.cif,0.0,0.0,mBJ,0.0,-0.13962,,Fm-3m
JVASP-19879,Cr3B4,FAILED_JVASP-19879.cif,0.0,0.0,mBJ,0.0,-0.42423,,Immm
JVASP-103656,DyP2Pd2,FAILED_JVASP-103656.cif,0.0,0.0,mBJ,0.0,-0.90474,,I4/mmm
JVASP-100754,Sc2CoRh,FAILED_JVASP-100754.cif,0.0,0.0,mBJ,0.0,-0.74296,,Fm-3m
JVASP-101005,NaZn3,FAILED_JVASP-101005.cif,0.0,0.0,mBJ,0.0,-0.00459,,P6_3/mmc
JVASP-2997,SrMg2Sb2,FAILED_JVASP-2997.cif,1.068,1.435,mBJ,0.367,-0.83997,,P-3m1
JVASP-101658,MgCuPb,FAILED_JVASP-101658.cif,0.0,0.0,mBJ,0.0,-0.06998,,F-43m
JVASP-101114,Sr2Zn5Si3,FAILED_JVASP-101114.cif,0.0,0.0,mBJ,0.0,-0.35777,,P4mm
JVASP-18449,Ce2SeF4,FAILED_JVASP-18449.cif,0.0,0.0,mBJ,0.0,-3.67891,,R-3m
JVASP-103412,Ti4O3,FAILED_JVASP-103412.cif,0.0,0.0,mBJ,0.0,-2.34205,,I4/mmm
JVASP-100884,Li3ScF6,FAILED_JVASP-100884.cif,6.108,8.17,mBJ,2.062,-3.31527,,Fm-3m
JVASP-49801,HoBO3,FAILED_JVASP-49801.cif,5.511,7.194,mBJ,1.683,-3.32323,,R-3c
JVASP-99469,Nd2ZnIn,FAILED_JVASP-99469.cif,0.0,0.0,mBJ,0.0,-0.422,,Fm-3m
JVASP-101473,MgAl2Sb2,FAILED_JVASP-101473.cif,0.0,0.0,mBJ,0.0,-0.03138,,P-3m1
JVASP-99604,Rb3In,FAILED_JVASP-99604.cif,0.0,0.0,mBJ,0.0,0.01131,,Fm-3m
JVASP-15283,HoSi2Rh2,FAILED_JVASP-15283.cif,0.0,0.0,mBJ,0.0,-1.0565,,I4/mmm
JVASP-100346,Sr2CuO2F2,FAILED_JVASP-100346.cif,0.0,0.0,mBJ,0.0,-2.60929,,Imm2
JVASP-102291,Sr2TlZn,FAILED_JVASP-102291.cif,0.0,0.0,mBJ,0.0,-0.41197,,Fm-3m
JVASP-14597,Mg,FAILED_JVASP-14597.cif,0.0,0.0,mBJ,0.0,0.03228,,Im-3m
JVASP-49748,Li8TiS6,FAILED_JVASP-49748.cif,1.017,1.212,mBJ,0.195,-1.44564,,R-3
JVASP-14748,MgPd,FAILED_JVASP-14748.cif,0.0,0.0,mBJ,0.0,-0.7618,,Pm-3m
JVASP-99694,K2NaIrF6,FAILED_JVASP-99694.cif,2.365,2.454,mBJ,0.089,-2.45478,,Fm-3m
JVASP-100561,FeCo2Se4,FAILED_JVASP-100561.cif,0.0,0.0,mBJ,0.0,-0.26654,,Cm
JVASP-100253,UHgO3,FAILED_JVASP-100253.cif,0.024,0.0,mBJ,-0.024,-2.37956,,Pm-3m
JVASP-17906,ZnCu2GeSe4,FAILED_JVASP-17906.cif,0.0,0.42,mBJ,0.42,-0.35546,,I-42m
JVASP-101611,TaZn3,FAILED_JVASP-101611.cif,0.0,0.0,mBJ,0.0,-0.07273,,Pm-3m
JVASP-47545,NbCo3O8,FAILED_JVASP-47545.cif,0.0,0.0,mBJ,0.0,-1.49599,,P6_3mc
JVASP-100202,MgVRu2,FAILED_JVASP-100202.cif,0.0,0.0,mBJ,0.0,-0.19255,,Fm-3m
JVASP-15025,NbN,FAILED_JVASP-15025.cif,0.0,0.0,mBJ,0.0,-1.19239,,P6_3/mmc
JVASP-100798,Tb2AlCu,FAILED_JVASP-100798.cif,0.0,0.0,mBJ,0.0,-0.35401,,P4/mmm
JVASP-101709,KNaMg2F6,FAILED_JVASP-101709.cif,6.544,10.415,mBJ,3.871,-3.48369,,Fm-3m
JVASP-103322,Ti3Te,FAILED_JVASP-103322.cif,0.0,0.0,mBJ,0.0,-0.24795,,P6_3/mmc
JVASP-101659,SmBiPd,FAILED_JVASP-101659.cif,0.0,0.142,mBJ,0.142,-0.9622,,F-43m
JVASP-18475,Pb2ClO2,FAILED_JVASP-18475.cif,0.0,0.0,mBJ,0.0,-1.14685,,I4/mmm
JVASP-101227,BiSbPt2,FAILED_JVASP-101227.cif,0.0,0.0,mBJ,0.0,-0.31763,,P-6m2
JVASP-52841,NaH3SO5,FAILED_JVASP-52841.cif,5.801,8.593,mBJ,2.792,-1.38823,,Cc
JVASP-100119,Rb3GaF6,FAILED_JVASP-100119.cif,6.167,8.767,mBJ,2.6,-2.94305,,Fm-3m
JVASP-99371,Er2TlIn,FAILED_JVASP-99371.cif,0.0,0.0,mBJ,0.0,-0.37972,,Fm-3m
JVASP-99936,ScTlF6,FAILED_JVASP-99936.cif,3.78,5.821,mBJ,2.041,-2.96304,,R-3
JVASP-103711,In2CuAgSe4,FAILED_JVASP-103711.cif,0.042,0.277,mBJ,0.235,-0.41351,,I-4
JVASP-100701,LiVO3,FAILED_JVASP-100701.cif,1.607,2.102,mBJ,0.495,-2.40795,,C2/m
JVASP-101063,PrAsPd,FAILED_JVASP-101063.cif,0.0,0.0,mBJ,0.0,-1.19489,,P6_3/mmc
JVASP-47639,Hf3SnO8,FAILED_JVASP-47639.cif,3.721,5.544,mBJ,1.823,-3.27261,,P2
JVASP-19865,ErNi5,FAILED_JVASP-19865.cif,0.0,0.0,mBJ,0.0,-0.3754,,P6/mmm
JVASP-103657,CeAl2Si2,FAILED_JVASP-103657.cif,0.0,0.0,mBJ,0.0,-0.4038,,P-3m1
JVASP-102909,AgBrO3,FAILED_JVASP-102909.cif,2.223,2.797,mBJ,0.574,0.10949,,R3m
JVASP-102347,Bi3Te5Pb,FAILED_JVASP-102347.cif,0.0,0.0,mBJ,0.0,-0.21312,,P3m1
JVASP-100619,YbPmCd2,FAILED_JVASP-100619.cif,0.0,0.0,mBJ,0.0,-0.4313,,Fm-3m
JVASP-103420,SnSbO4,FAILED_JVASP-103420.cif,0.0,0.0,mBJ,0.0,-1.54633,,Cmmm
JVASP-18595,TmAg2,FAILED_JVASP-18595.cif,0.0,0.0,mBJ,0.0,-0.37496,,I4/mmm
JVASP-106229,MgReO4,FAILED_JVASP-106229.cif,0.0,1.149,mBJ,1.149,-2.11031,,Cmmm
JVASP-100505,Sr3Sc,FAILED_JVASP-100505.cif,0.0,0.0,mBJ,0.0,0.2737,,I4/mmm
JVASP-103138,CaReN2,FAILED_JVASP-103138.cif,0.0,0.0,mBJ,0.0,-0.60362,,R-3m
JVASP-2763,BaMg2As2,FAILED_JVASP-2763.cif,1.152,1.604,mBJ,0.452,-1.03967,,P-3m1
JVASP-19818,TbAl2,FAILED_JVASP-19818.cif,0.0,0.0,mBJ,0.0,-0.54109,,Fd-3m
JVASP-2682,K2PtS2,FAILED_JVASP-2682.cif,1.324,1.759,mBJ,0.435,-1.07093,,Immm
JVASP-20108,TbTe,FAILED_JVASP-20108.cif,0.0,0.876,mBJ,0.876,-1.34363,,Fm-3m
JVASP-14984,FeSb,FAILED_JVASP-14984.cif,0.0,0.0,mBJ,0.0,0.03621,,P6_3/mmc
JVASP-100302,TbAl3Cu2,FAILED_JVASP-100302.cif,0.0,0.0,mBJ,0.0,-0.45259,,P6/mmm
JVASP-15618,MnSbPt,FAILED_JVASP-15618.cif,0.0,0.0,mBJ,0.0,-0.25748,,F-43m
JVASP-99605,TbAl3,FAILED_JVASP-99605.cif,0.0,0.0,mBJ,0.0,-0.44899,,Pm-3m
JVASP-99562,LiCoN,FAILED_JVASP-99562.cif,0.0,0.0,mBJ,0.0,-0.19857,,Amm2
JVASP-102054,Rb3GaBr6,FAILED_JVASP-102054.cif,2.277,3.724,mBJ,1.447,-1.3774,,Fm-3m
JVASP-102227,CaHo2Te4,FAILED_JVASP-102227.cif,0.605,1.157,mBJ,0.552,-1.51857,,P2/m
JVASP-100756,SrCd3,FAILED_JVASP-100756.cif,0.0,0.0,mBJ,0.0,-0.29502,,Fm-3m
JVASP-2436,NaSbS2,FAILED_JVASP-2436.cif,0.756,1.634,mBJ,0.878,-0.78716,,C2/c
JVASP-1167,BeS,FAILED_JVASP-1167.cif,3.395,4.376,mBJ,0.981,-1.24098,,F-43m
JVASP-102174,Ti3S2,FAILED_JVASP-102174.cif,0.0,0.0,mBJ,0.0,-1.01075,,R32
JVASP-100350,SmCo2Ni3,FAILED_JVASP-100350.cif,0.0,0.0,mBJ,0.0,-0.18786,,P6/mmm
JVASP-101551,DyCdPt2,FAILED_JVASP-101551.cif,0.0,0.0,mBJ,0.0,-0.90148,,Fm-3m
JVASP-102056,ZrSbRh,FAILED_JVASP-102056.cif,1.168,1.148,mBJ,-0.02,-0.98295,,F-43m
JVASP-15573,PrMn2Si2,FAILED_JVASP-15573.cif,0.0,0.0,mBJ,0.0,-0.4908,,I4/mmm
JVASP-2439,Nd2TeO2,FAILED_JVASP-2439.cif,1.716,2.44,mBJ,0.724,-3.06453,,I4/mmm
JVASP-106231,Ca,FAILED_JVASP-106231.cif,0.0,0.0,mBJ,0.0,0.00044,,Fm-3m
JVASP-99938,Rb2WO2F4,FAILED_JVASP-99938.cif,2.238,3.838,mBJ,1.6,-2.75197,,C2/m
JVASP-100509,Ti2MoPd,FAILED_JVASP-100509.cif,0.0,0.0,mBJ,0.0,-0.40201,,Fm-3m
JVASP-102369,K3BiI6,FAILED_JVASP-102369.cif,2.566,3.244,mBJ,0.678,-1.00869,,Fm-3m
JVASP-100568,RbPbF3,FAILED_JVASP-100568.cif,3.999,5.501,mBJ,1.502,-2.65143,,R3c
JVASP-101228,BiPd6Pb,FAILED_JVASP-101228.cif,0.0,0.0,mBJ,0.0,-0.25077,,P4/mmm
JVASP-102349,Al3BC,FAILED_JVASP-102349.cif,0.645,0.903,mBJ,0.258,-0.21259,,P6_3/mmc
JVASP-101116,Sr2TaMnO6,FAILED_JVASP-101116.cif,0.0,0.0,mBJ,0.0,-2.95648,,Fm-3m
JVASP-15026,USb2,FAILED_JVASP-15026.cif,0.0,0.0,mBJ,0.0,-0.27131,,P4/nmm
JVASP-99648,HoBiRh,FAILED_JVASP-99648.cif,0.0,0.0,mBJ,0.0,-0.75026,,P-62m
JVASP-100208,MgSc,FAILED_JVASP-100208.cif,0.0,0.0,mBJ,0.0,-0.03249,,Pm-3m
JVASP-102985,SrMgO3,FAILED_JVASP-102985.cif,0.0,0.0,mBJ,0.0,-2.19919,,Pm-3m
JVASP-101425,TbBiRh,FAILED_JVASP-101425.cif,0.0,0.0,mBJ,0.0,-0.75974,,P-62m
JVASP-100444,ScAlN2,FAILED_JVASP-100444.cif,1.021,1.741,mBJ,0.72,-1.67546,,I4_1/amd
JVASP-100621,Rb3EuF6,FAILED_JVASP-100621.cif,4.872,9.176,mBJ,4.304,-3.35086,,I4/mmm
JVASP-102538,NdTmIn2,FAILED_JVASP-102538.cif,0.0,0.0,mBJ,0.0,-0.47482,,Fm-3m
JVASP-103609,In3S,FAILED_JVASP-103609.cif,0.0,0.0,mBJ,0.0,-0.12868,,Pm-3m
JVASP-99606,SnGeO3,FAILED_JVASP-99606.cif,0.0,0.191,mBJ,0.191,-1.39053,,Pm-3m
JVASP-16063,BaPaO3,FAILED_JVASP-16063.cif,0.0,4.539,mBJ,4.539,-3.40962,,Pm-3m
JVASP-20109,DyNi5,FAILED_JVASP-20109.cif,0.0,0.0,mBJ,0.0,-0.37051,,P6/mmm
JVASP-15241,ScSi2Ni2,FAILED_JVASP-15241.cif,0.0,0.0,mBJ,0.0,-0.75269,,I4/mmm
JVASP-18476,BiO,FAILED_JVASP-18476.cif,0.0,0.977,mBJ,0.977,-0.62732,,R3m
JVASP-103062,NbAl6Mo,FAILED_JVASP-103062.cif,0.0,0.0,mBJ,0.0,-0.34282,,P4/mmm
JVASP-15663,MnSbAu,FAILED_JVASP-15663.cif,0.0,0.0,mBJ,0.0,0.15184,,F-43m
JVASP-18426,AlCl3,FAILED_JVASP-18426.cif,0.0,0.0,mBJ,0.0,-0.7388,,P-3m1
JVASP-103324,Tm2AlRu,FAILED_JVASP-103324.cif,0.0,0.0,mBJ,0.0,-0.43825,,Fm-3m
JVASP-101712,HoAgTe2,FAILED_JVASP-101712.cif,1.08,1.633,mBJ,0.553,-0.88799,,P3m1
JVASP-2685,Rb2PtS2,FAILED_JVASP-2685.cif,1.276,1.702,mBJ,0.426,-1.05431,,Immm
JVASP-102296,YHoIr2,FAILED_JVASP-102296.cif,0.0,0.0,mBJ,0.0,-0.97294,,Fm-3m
JVASP-100758,TaP,FAILED_JVASP-100758.cif,0.0,0.0,mBJ,0.0,-0.91742,,P-6m2
JVASP-101011,Pm2TlSn,FAILED_JVASP-101011.cif,0.0,0.0,mBJ,0.0,-0.53226,,Fm-3m
JVASP-102488,ErLuRh2,FAILED_JVASP-102488.cif,0.0,0.0,mBJ,0.0,-1.03513,,Fm-3m
JVASP-14655,Sm2Tl,FAILED_JVASP-14655.cif,0.0,0.0,mBJ,0.0,-0.27643,,P6_3/mmc
JVASP-1645,MgCN2,FAILED_JVASP-1645.cif,3.95,5.195,mBJ,1.245,-0.76493,,R-3m
JVASP-100704,AcCdAu2,FAILED_JVASP-100704.cif,0.0,0.0,mBJ,0.0,-0.69502,,Fm-3m
JVASP-100510,Ti3Cd,FAILED_JVASP-100510.cif,0.0,0.0,mBJ,0.0,0.03389,,Pm-3m
JVASP-54715,H7BrO3,FAILED_JVASP-54715.cif,4.392,6.586,mBJ,2.194,-0.89101,,Cc
JVASP-100304,ScTaN2,FAILED_JVASP-100304.cif,0.0,0.0,mBJ,0.0,-1.84346,,P6_3/mmc
JVASP-100445,Sr2PdN2,FAILED_JVASP-100445.cif,0.0,0.0,mBJ,0.0,-0.60595,,I4/mmm
JVASP-103659,SrLiSi,FAILED_JVASP-103659.cif,0.0,0.0,mBJ,0.0,-0.36536,,P-6m2
JVASP-102918,BaNa2Sn,FAILED_JVASP-102918.cif,0.0,0.0,mBJ,0.0,-0.36615,,Fm-3m
JVASP-100571,KNa2ScF6,FAILED_JVASP-100571.cif,5.296,8.266,mBJ,2.97,-3.23565,,Fm-3m
JVASP-101426,ScO2,FAILED_JVASP-101426.cif,0.35,3.842,mBJ,3.492,-2.82363,,Pnnm
JVASP-52903,BeH2O2,FAILED_JVASP-52903.cif,5.828,8.274,mBJ,2.446,-1.81655,,P2_12_12_1
JVASP-100666,AlCrGe,FAILED_JVASP-100666.cif,0.0,0.0,mBJ,0.0,-0.0328,,F222
JVASP-100210,MgSc2Hg,FAILED_JVASP-100210.cif,0.0,0.0,mBJ,0.0,-0.18636,,Fm-3m
JVASP-101066,Sn2IF2,FAILED_JVASP-101066.cif,0.0,0.0,mBJ,0.0,-1.5109,,Cmcm
JVASP-100958,CaAcTl2,FAILED_JVASP-100958.cif,0.0,0.0,mBJ,0.0,-0.46675,,Fm-3m
JVASP-102435,LiHoO2,FAILED_JVASP-102435.cif,4.464,6.033,mBJ,1.569,-3.12446,,R-3m
JVASP-3978,P2Pd,FAILED_JVASP-3978.cif,0.553,0.5,mBJ,-0.053,-0.42707,,C2/c
JVASP-15713,ScSi2Cu2,FAILED_JVASP-15713.cif,0.0,0.0,mBJ,0.0,-0.4507,,I4/mmm
JVASP-99607,Sr2CdGa,FAILED_JVASP-99607.cif,0.0,0.0,mBJ,0.0,-0.42896,,Fm-3m
JVASP-100759,TaTc2Ge,FAILED_JVASP-100759.cif,0.0,0.0,mBJ,0.0,-0.26078,,Fm-3m
JVASP-102230,AlNi6Pd,FAILED_JVASP-102230.cif,0.0,0.0,mBJ,0.0,-0.19097,,P4/mmm
JVASP-102689,PtSeS,FAILED_JVASP-102689.cif,0.0,0.248,mBJ,0.248,-0.39969,,P3m1
JVASP-28416,Te2W,FAILED_JVASP-28416.cif,0.95,1.076,mBJ,0.126,-0.03597,,P6_3/mmc
JVASP-19912,MoPt2,FAILED_JVASP-19912.cif,0.0,0.0,mBJ,0.0,-0.37256,,Immm
JVASP-16064,BaNpO3,FAILED_JVASP-16064.cif,0.0,0.0,mBJ,0.0,-3.2796,,Pm-3m
JVASP-16128,SmNi2B2C,FAILED_JVASP-16128.cif,0.0,0.0,mBJ,0.0,-0.52779,,I4/mmm
JVASP-102540,PaTc2Sn,FAILED_JVASP-102540.cif,0.0,0.0,mBJ,0.0,-0.2337,,Fm-3m
JVASP-51153,SiTe2Os,FAILED_JVASP-51153.cif,0.0,0.0,mBJ,0.0,0.85519,,Fm-3m
JVASP-100511,TiZn2Pd,FAILED_JVASP-100511.cif,0.0,0.0,mBJ,0.0,-0.36645,,Fm-3m
JVASP-14897,AgF,FAILED_JVASP-14897.cif,0.0,2.089,mBJ,2.089,-1.04198,,Fm-3m
JVASP-15284,ErSi2Ir2,FAILED_JVASP-15284.cif,0.0,0.0,mBJ,0.0,-1.02049,,I4/mmm
JVASP-28454,Te2W,FAILED_JVASP-28454.cif,0.985,1.077,mBJ,0.092,-0.03391,,P-6m2
JVASP-100572,Rb2IrAuF6,FAILED_JVASP-100572.cif,0.657,1.578,mBJ,0.921,-1.85307,,Fm-3m
JVASP-102371,K2LiRhF6,FAILED_JVASP-102371.cif,1.9,2.425,mBJ,0.525,-2.62176,,Fm-3m
JVASP-1504,NaTaN2,FAILED_JVASP-1504.cif,1.33,2.236,mBJ,0.906,-1.08377,,R-3m
JVASP-102742,Hg2TeS,FAILED_JVASP-102742.cif,0.0,0.0,mBJ,0.0,0.05877,,R3m
JVASP-100667,AgBiPbS3,FAILED_JVASP-100667.cif,0.105,0.637,mBJ,0.532,-0.39429,,Imm2
JVASP-101714,Ho2InAg,FAILED_JVASP-101714.cif,0.0,0.0,mBJ,0.0,-0.43094,,P4/mmm
JVASP-102438,ScF3,FAILED_JVASP-102438.cif,5.986,7.064,mBJ,1.078,-4.00066,,C2
JVASP-101118,SnBi,FAILED_JVASP-101118.cif,0.0,0.0,mBJ,0.0,0.03639,,I-4m2
JVASP-102060,K3ScCl6,FAILED_JVASP-102060.cif,3.999,4.217,mBJ,0.218,-2.10227,,Fm-3m
JVASP-102233,ZnCu2SiSe4,FAILED_JVASP-102233.cif,0.663,2.051,mBJ,1.388,-0.3981,,I-4
JVASP-100959,Ca2AgRh,FAILED_JVASP-100959.cif,0.0,0.0,mBJ,0.0,-0.44282,,Fm-3m
JVASP-102123,Pu2SnHg,FAILED_JVASP-102123.cif,0.0,0.0,mBJ,0.0,-0.38232,,Fm-3m
JVASP-14225,Ag8S,FAILED_JVASP-14225.cif,0.0,0.0,mBJ,0.0,0.15629,,Immm
JVASP-101555,Cu3As,FAILED_JVASP-101555.cif,0.0,0.0,mBJ,0.0,0.06381,,Pm-3m
JVASP-15325,HoSi2Pd2,FAILED_JVASP-15325.cif,0.0,0.0,mBJ,0.0,-0.87148,,I4/mmm
JVASP-102919,BeCrFe2,FAILED_JVASP-102919.cif,0.0,0.0,mBJ,0.0,-0.15458,,Fm-3m
JVASP-14601,Sn,FAILED_JVASP-14601.cif,0.0,0.0,mBJ,0.0,-0.0,,Fd-3m
JVASP-52842,Al6C3N2,FAILED_JVASP-52842.cif,0.221,0.368,mBJ,0.147,-0.27412,,Pm