material_id,formula,cif_path,pbe_bandgap,hse_bandgap,gap_type,correction,formation_energy,total_energy,spacegroup
JVASP-66473,Ba4CoRe,FAILED_JVASP-66473.cif,0.0,0.0,mBJ,0.0,1.70154,,F-43m
JVASP-66231,Ba4HfW,FAILED_JVASP-66231.cif,0.0,0.0,mBJ,0.0,1.56573,,F-43m
JVASP-66550,Ba4PdW,FAILED_JVASP-66550.cif,0.0,0.0,mBJ,0.0,1.21483,,F-43m
JVASP-69024,Ba2YSn,FAILED_JVASP-69024.cif,0.0,0.0,mBJ,0.0,-0.10462,,Fm-3m
JVASP-66628,BaTlPb,FAILED_JVASP-66628.cif,0.0,0.0,mBJ,0.0,-0.06379,,F-43m
JVASP-66659,BaNaSn,FAILED_JVASP-66659.cif,0.0,0.0,mBJ,0.0,0.00076,,F-43m
JVASP-69224,Ba2TlCl,FAILED_JVASP-69224.cif,0.0,0.0,mBJ,0.0,-0.96287,,Fm-3m
JVASP-66508,Ba4MnTc,FAILED_JVASP-66508.cif,0.0,0.0,mBJ,0.0,1.36358,,F-43m
JVASP-66119,BaSrSn,FAILED_JVASP-66119.cif,0.389,0.558,mBJ,0.169,-0.17675,,F-43m
JVASP-62814,Ba2CdB6O12,FAILED_JVASP-62814.cif,4.661,6.728,mBJ,2.067,-2.66871,,R-3
JVASP-62175,Te3As2,FAILED_JVASP-62175.cif,0.352,0.489,mBJ,0.137,-0.00768,,R-3m
JVASP-66313,Ba2TiCr,FAILED_JVASP-66313.cif,0.0,0.0,mBJ,0.0,1.37526,,Fm-3m
JVASP-28371,NbTe2,FAILED_JVASP-28371.cif,0.0,0.0,mBJ,0.0,-0.41718,,P-3m1
JVASP-66436,Ba4VCo,FAILED_JVASP-66436.cif,0.0,0.0,mBJ,0.0,1.28436,,F-43m
JVASP-66182,KBaCu,FAILED_JVASP-66182.cif,0.0,0.0,mBJ,0.0,0.44673,,F-43m
JVASP-66084,KBaBe,FAILED_JVASP-66084.cif,0.0,0.0,mBJ,0.0,0.88073,,F-43m
JVASP-62546,SrB2S4,FAILED_JVASP-62546.cif,2.871,3.572,mBJ,0.701,-1.06343,,P2_1/c
JVASP-3192,KAg2PS4,FAILED_JVASP-3192.cif,1.057,2.373,mBJ,1.316,-0.53726,,I-42m
JVASP-65647,BaMgCl2,FAILED_JVASP-65647.cif,0.054,0.434,mBJ,0.38,-1.61053,,P4mm
JVASP-63216,Li3As,FAILED_JVASP-63216.cif,0.764,1.108,mBJ,0.344,-0.78007,,P6_3/mmc
JVASP-65576,BaNa2Mn,FAILED_JVASP-65576.cif,0.0,0.0,mBJ,0.0,0.56028,,P4/mmm
JVASP-66551,Ba4HfOs,FAILED_JVASP-66551.cif,0.0,0.0,mBJ,0.0,1.48226,,F-43m
JVASP-69136,BaCa2Mg,FAILED_JVASP-69136.cif,0.0,0.0,mBJ,0.0,-0.03877,,P4mm
JVASP-69260,BaYSc2,FAILED_JVASP-69260.cif,0.0,0.0,mBJ,0.0,0.32014,,P4/mmm
JVASP-48692,Na2FeO3,FAILED_JVASP-48692.cif,0.0,0.0,mBJ,0.0,-1.65221,,C2/m
JVASP-66763,BeTeW,FAILED_JVASP-66763.cif,0.0,0.0,mBJ,0.0,0.27052,,I4mm
JVASP-68982,BaNa2Pt,FAILED_JVASP-68982.cif,0.0,0.0,mBJ,0.0,-0.05825,,P4/mmm
JVASP-60808,FeB2,FAILED_JVASP-60808.cif,0.396,0.383,mBJ,-0.013,-0.27362,,Pnma
JVASP-4840,Ca3N2,FAILED_JVASP-4840.cif,1.982,3.116,mBJ,1.134,-0.94783,,P-3m1
JVASP-69058,BaCo2Br,FAILED_JVASP-69058.cif,0.0,0.0,mBJ,0.0,0.39262,,P4/mmm
JVASP-69101,BaTa2P,FAILED_JVASP-69101.cif,0.0,0.0,mBJ,0.0,0.90935,,I4/mmm
JVASP-65690,BaSc4Ru,FAILED_JVASP-65690.cif,0.0,0.0,mBJ,0.0,0.61624,,F-43m
JVASP-63760,UBN,FAILED_JVASP-63760.cif,0.0,0.0,mBJ,0.0,-1.18058,,Cmcm
JVASP-69342,BaGaBi2,FAILED_JVASP-69342.cif,0.0,0.0,mBJ,0.0,-0.32922,,P4mm
JVASP-65611,Ba2MnBr,FAILED_JVASP-65611.cif,0.0,0.0,mBJ,0.0,-0.23947,,Fm-3m
JVASP-66232,BaLiSb,FAILED_JVASP-66232.cif,0.742,1.347,mBJ,0.605,-0.35816,,F-43m
JVASP-68940,Ba2NaCu,FAILED_JVASP-68940.cif,0.0,0.0,mBJ,0.0,0.07184,,Fm-3m
JVASP-66274,Ba4CdRu,FAILED_JVASP-66274.cif,0.0,0.0,mBJ,0.0,0.89117,,F-43m
JVASP-66357,BaTlBi,FAILED_JVASP-66357.cif,0.506,0.657,mBJ,0.151,-0.35733,,F-43m
JVASP-14706,Zr,FAILED_JVASP-14706.cif,0.0,0.0,mBJ,0.0,0.07277,,Im-3m
JVASP-91584,GaSi3C3N,FAILED_JVASP-91584.cif,2.822,3.625,mBJ,0.803,-0.34097,,Pm
JVASP-66509,BaSrNb,FAILED_JVASP-66509.cif,0.0,0.0,mBJ,0.0,1.49614,,F-43m
JVASP-66437,BaBiBr,FAILED_JVASP-66437.cif,0.0,0.0,mBJ,0.0,-0.76052,,F-43m
JVASP-63220,YbCu4Au,FAILED_JVASP-63220.cif,0.0,0.0,mBJ,0.0,-0.41044,,F-43m
JVASP-62177,KAuN12,FAILED_JVASP-62177.cif,1.476,1.634,mBJ,0.158,0.4708,,C2/c
JVASP-1702,ZnS,FAILED_JVASP-1702.cif,2.086,3.592,mBJ,1.506,-0.88682,,F-43m
JVASP-66183,BaSrHf,FAILED_JVASP-66183.cif,0.0,0.0,mBJ,0.0,1.29676,,F-43m
JVASP-66393,Ba4YOs,FAILED_JVASP-66393.cif,0.0,0.0,mBJ,0.0,1.17774,,F-43m
JVASP-63114,MgB2H8,FAILED_JVASP-63114.cif,6.161,10.246,mBJ,4.085,-0.22115,,I-4m2
JVASP-69296,BaCu2Cl,FAILED_JVASP-69296.cif,0.0,0.0,mBJ,0.0,-0.46691,,P4/mmm
JVASP-66474,Ba4HgIr,FAILED_JVASP-66474.cif,0.0,0.0,mBJ,0.0,0.72814,,F-43m
JVASP-66631,Ba4TaNb,FAILED_JVASP-66631.cif,0.0,0.0,mBJ,0.0,1.51087,,F-43m
JVASP-65691,BaCo2Br,FAILED_JVASP-65691.cif,0.0,0.0,mBJ,0.0,0.4564,,I4/mmm
JVASP-3495,InCuTe2,FAILED_JVASP-3495.cif,0.0,1.044,mBJ,1.044,-0.24704,,I-42d
JVASP-42255,Li4Ti3V3Te2O16,FAILED_JVASP-42255.cif,0.017,0.0,mBJ,-0.017,-2.38586,,Cm
JVASP-61086,CaSiBHO5,FAILED_JVASP-61086.cif,5.627,7.804,mBJ,2.177,-2.70338,,P2_1/c
JVASP-69344,BaNa2Re,FAILED_JVASP-69344.cif,0.0,0.0,mBJ,0.0,1.2083,,P4/mmm
JVASP-65330,BaYMo2,FAILED_JVASP-65330.cif,0.0,0.0,mBJ,0.0,0.39695,,P4mm
JVASP-66394,BaBiSe,FAILED_JVASP-66394.cif,0.0,0.0,mBJ,0.0,-0.44991,,F-43m
JVASP-22706,Li3VS4,FAILED_JVASP-22706.cif,1.821,2.122,mBJ,0.301,-1.19619,,P-43m
JVASP-62820,CeAl2BRu2,FAILED_JVASP-62820.cif,0.0,0.0,mBJ,0.0,-0.60456,,P4/mmm
JVASP-53563,Li5AuO4,FAILED_JVASP-53563.cif,2.205,2.573,mBJ,0.368,-1.64601,,C2/m
JVASP-66661,BaBiTe,FAILED_JVASP-66661.cif,0.0,0.0,mBJ,0.0,-0.46161,,F-43m
JVASP-329,TiSe,FAILED_JVASP-329.cif,0.0,0.0,mBJ,0.0,-0.84038,,P4/nmm
JVASP-66121,BaTiCd,FAILED_JVASP-66121.cif,0.0,0.0,mBJ,0.0,1.12063,,F-43m
JVASP-66438,Ba4ZrW,FAILED_JVASP-66438.cif,0.0,0.0,mBJ,0.0,1.5111,,F-43m
JVASP-86878,NpMn2Si2,FAILED_JVASP-86878.cif,0.0,0.0,mBJ,0.0,-0.21501,,I4/mmm
JVASP-18439,ZrCl,FAILED_JVASP-18439.cif,0.0,0.0,mBJ,0.0,-1.36024,,R-3m
JVASP-69138,Ba2ScTl,FAILED_JVASP-69138.cif,0.0,0.0,mBJ,0.0,0.04209,,Fm-3m
JVASP-68984,Ba2HfCl,FAILED_JVASP-68984.cif,0.0,0.0,mBJ,0.0,0.10348,,Fm-3m
JVASP-63601,CaB2H8,FAILED_JVASP-63601.cif,5.107,6.639,mBJ,1.532,-0.38362,,P4_2/m
JVASP-61629,CaAs2O6,FAILED_JVASP-61629.cif,3.479,4.814,mBJ,1.335,-1.87736,,P-31m
JVASP-69178,BaMnCl2,FAILED_JVASP-69178.cif,0.0,0.0,mBJ,0.0,-1.00946,,P4/mmm
JVASP-65577,BaLiTi2,FAILED_JVASP-65577.cif,0.0,0.0,mBJ,0.0,0.76522,,P4/mmm
JVASP-69226,Ba2SrW,FAILED_JVASP-69226.cif,0.0,0.0,mBJ,0.0,1.04976,,Fm-3m
JVASP-66766,BePdBr,FAILED_JVASP-66766.cif,0.0,0.0,mBJ,0.0,-0.15928,,P3m1
JVASP-86808,H3AuC2NCl,FAILED_JVASP-86808.cif,3.444,3.945,mBJ,0.501,-0.03986,,P2_1/m
JVASP-69029,Ba2TlSb,FAILED_JVASP-69029.cif,0.0,0.0,mBJ,0.0,-0.70396,,Fm-3m
JVASP-65425,BaRh2Se,FAILED_JVASP-65425.cif,0.0,0.0,mBJ,0.0,0.03948,,P4/mmm
JVASP-90836,CeAsRuO,FAILED_JVASP-90836.cif,0.0,0.0,mBJ,0.0,-1.94614,,P4/nmm
JVASP-66162,BaCaIn,FAILED_JVASP-66162.cif,0.0,0.0,mBJ,0.0,-0.03373,,F-43m
JVASP-66233,BaMgBr,FAILED_JVASP-66233.cif,0.0,1.828,mBJ,1.828,-0.60152,,F-43m
JVASP-43556,Li5FeF8,FAILED_JVASP-43556.cif,0.019,0.0,mBJ,-0.019,-2.81833,,Cmmm
JVASP-66319,Ba4SbP,FAILED_JVASP-66319.cif,0.0,0.0,mBJ,0.0,0.07557,,F-43m
JVASP-85897,BaSnO3,FAILED_JVASP-85897.cif,0.578,2.166,mBJ,1.588,-2.39288,,Pm-3m
JVASP-87076,TbBaF6,FAILED_JVASP-87076.cif,0.0,0.0,mBJ,0.0,-3.65495,,Cmme
JVASP-66860,BeMoRh,FAILED_JVASP-66860.cif,0.0,0.0,mBJ,0.0,-0.28932,,I4mm
JVASP-66632,Ba4CoTc,FAILED_JVASP-66632.cif,0.0,0.0,mBJ,0.0,1.54244,,F-43m
JVASP-65613,BaCrSe4,FAILED_JVASP-65613.cif,0.0,0.0,mBJ,0.0,0.4368,,F-43m
JVASP-65648,BaHfSe4,FAILED_JVASP-65648.cif,0.0,0.0,mBJ,0.0,0.07725,,F-43m
JVASP-69102,BaTiSe2,FAILED_JVASP-69102.cif,0.0,0.0,mBJ,0.0,-1.11865,,P4mm
JVASP-69061,BaCa2Bi,FAILED_JVASP-69061.cif,0.0,0.0,mBJ,0.0,-0.42374,,P4/mmm
JVASP-69346,K2BaMg,FAILED_JVASP-69346.cif,0.0,0.0,mBJ,0.0,0.14668,,P4/mmm
JVASP-3891,TiBrN,FAILED_JVASP-3891.cif,0.616,0.854,mBJ,0.238,-1.49743,,Pmmn
JVASP-66511,Ba4PPd,FAILED_JVASP-66511.cif,0.0,0.0,mBJ,0.0,0.40461,,F-43m
JVASP-66360,BaTiHg,FAILED_JVASP-66360.cif,0.0,0.0,mBJ,0.0,1.0087,,F-43m
JVASP-85745,Np2InPt2,FAILED_JVASP-85745.cif,0.0,0.0,mBJ,0.0,-0.6517,,P4/mbm
JVASP-66475,BaNaHg,FAILED_JVASP-66475.cif,0.0,0.0,mBJ,0.0,0.07801,,F-43m
JVASP-48953,Li4V3OF11,FAILED_JVASP-48953.cif,0.02,0.0,mBJ,-0.02,-2.99285,,P1
JVASP-44532,Li2Mn3SnO8,FAILED_JVASP-44532.cif,0.0,0.0,mBJ,0.0,-1.92616,,R-3m
JVASP-48336,MnNi3O4,FAILED_JVASP-48336.cif,0.0,0.0,mBJ,0.0,-0.84957,,Cmmm
JVASP-69262,K2BaMn,FAILED_JVASP-69262.cif,0.0,0.0,mBJ,0.0,0.49664,,P4mm
JVASP-69139,BaCrIn4,FAILED_JVASP-69139.cif,0.135,0.139,mBJ,0.004,0.4498,,F-43m
JVASP-5269,BiSI,FAILED_JVASP-5269.cif,1.767,2.407,mBJ,0.64,-0.46516,,Pnma
JVASP-92174,ZnCu2GeTe4,FAILED_JVASP-92174.cif,0.0,0.283,mBJ,0.283,-0.16733,,I-42m
JVASP-68941,BaInMo2,FAILED_JVASP-68941.cif,0.0,0.0,mBJ,0.0,1.21135,,P4/mmm
JVASP-66395,BaTiTe,FAILED_JVASP-66395.cif,0.0,0.0,mBJ,0.0,0.33032,,F-43m
JVASP-66633,BaVHg,FAILED_JVASP-66633.cif,0.0,0.0,mBJ,0.0,1.0022,,F-43m
JVASP-90025,UGaPd,FAILED_JVASP-90025.cif,0.0,0.0,mBJ,0.0,-0.37926,,P-62m
JVASP-66600,BaInSn,FAILED_JVASP-66600.cif,0.0,0.0,mBJ,0.0,-0.05787,,F-43m
JVASP-14659,ScAl,FAILED_JVASP-14659.cif,0.0,0.0,mBJ,0.0,-0.47668,,Pm-3m
JVASP-63117,B,FAILED_JVASP-63117.cif,1.642,1.946,mBJ,0.304,0.02302,,Pnnm
JVASP-66234,Ba4OsCl,FAILED_JVASP-66234.cif,0.0,0.0,mBJ,0.0,0.72792,,F-43m
JVASP-66163,Ba4CuRh,FAILED_JVASP-66163.cif,0.0,0.0,mBJ,0.0,0.85833,,F-43m
JVASP-50339,Rb2Be2O3,FAILED_JVASP-50339.cif,3.426,6.111,mBJ,2.685,-2.28605,,P2_1/c
JVASP-66512,BaLiTe,FAILED_JVASP-66512.cif,0.0,2.217,mBJ,2.217,-0.64785,,F-43m
JVASP-14166,Ta2PdS6,FAILED_JVASP-14166.cif,0.0,0.195,mBJ,0.195,-0.93217,,C2/m
JVASP-65692,BaMnBr2,FAILED_JVASP-65692.cif,0.0,0.0,mBJ,0.0,-0.7546,,P4/mmm
JVASP-86248,NbI5,FAILED_JVASP-86248.cif,0.693,0.764,mBJ,0.071,-0.44883,,P-1
JVASP-68986,KBa2Pd,FAILED_JVASP-68986.cif,0.0,0.0,mBJ,0.0,-0.03782,,Fm-3m
JVASP-65332,BaTiSi2,FAILED_JVASP-65332.cif,0.0,0.0,mBJ,0.0,0.10282,,P4mm
JVASP-66634,BaOsBr,FAILED_JVASP-66634.cif,0.0,0.0,mBJ,0.0,0.77344,,F-43m
JVASP-62548,CeB2C2,FAILED_JVASP-62548.cif,0.0,0.0,mBJ,0.0,-0.4861,,P4/mbm
JVASP-66164,BaMnBi,FAILED_JVASP-66164.cif,0.0,0.0,mBJ,0.0,0.53646,,F-43m
JVASP-42576,Li5Fe4O8,FAILED_JVASP-42576.cif,0.0,0.0,mBJ,0.0,-1.62371,,R3m
JVASP-65725,BaGaW2,FAILED_JVASP-65725.cif,0.0,0.0,mBJ,0.0,1.44655,,I4/mmm
JVASP-61884,TeAsRu,FAILED_JVASP-61884.cif,0.848,0.88,mBJ,0.032,-0.37373,,P2_1/c
JVASP-91723,SiI3,FAILED_JVASP-91723.cif,2.72,3.499,mBJ,0.779,-0.31621,,R-3
JVASP-69227,BaNi2Cl,FAILED_JVASP-69227.cif,0.0,0.0,mBJ,0.0,0.1041,,P4/mmm
JVASP-66362,BaTlBr,FAILED_JVASP-66362.cif,0.0,0.0,mBJ,0.0,-0.67035,,F-43m
JVASP-63459,K3AsS3,FAILED_JVASP-63459.cif,2.572,4.008,mBJ,1.436,-1.0839,,P2_13
JVASP-16221,Ti3TlN,FAILED_JVASP-16221.cif,0.0,0.0,mBJ,0.0,-0.82039,,Pm-3m
JVASP-66235,Ba4HgPt,FAILED_JVASP-66235.cif,0.0,0.0,mBJ,0.0,0.44909,,F-43m
JVASP-65765,BaZrTe2,FAILED_JVASP-65765.cif,0.0,0.0,mBJ,0.0,-0.85124,,P4mm
JVASP-65649,BaNaSr2,FAILED_JVASP-65649.cif,0.0,0.0,mBJ,0.0,0.04705,,P4/mmm
JVASP-66398,Ba4TaMn,FAILED_JVASP-66398.cif,0.0,0.0,mBJ,0.0,1.7297,,F-43m
JVASP-3408,In2HgTe4,FAILED_JVASP-3408.cif,0.404,1.349,mBJ,0.945,-0.22128,,I-4
JVASP-62390,BAsO4,FAILED_JVASP-62390.cif,4.469,6.027,mBJ,1.558,-1.7373,,I-4
JVASP-63878,B2O3,FAILED_JVASP-63878.cif,6.545,9.182,mBJ,2.637,-2.5325,,P3_121
JVASP-69264,Ba2SrP,FAILED_JVASP-69264.cif,0.0,0.0,mBJ,0.0,-0.14788,,Fm-3m
JVASP-65614,BaSr2Ca,FAILED_JVASP-65614.cif,0.0,0.0,mBJ,0.0,0.01984,,P4/mmm
JVASP-66863,ZrBePd,FAILED_JVASP-66863.cif,0.009,0.068,mBJ,0.059,-0.22441,,P3m1
JVASP-66953,BeZnRu,FAILED_JVASP-66953.cif,0.0,0.0,mBJ,0.0,0.11353,,P3m1
JVASP-69062,BaVBr2,FAILED_JVASP-69062.cif,0.0,0.0,mBJ,0.0,-0.72501,,P4mm
JVASP-65580,K2BaSe,FAILED_JVASP-65580.cif,0.0,0.0,mBJ,0.0,-0.88538,,P4mm
JVASP-69032,BaLi2Cl,FAILED_JVASP-69032.cif,0.0,0.0,mBJ,0.0,-0.65396,,P4/mmm
JVASP-62970,KLi2As,FAILED_JVASP-62970.cif,0.889,2.072,mBJ,1.183,-0.67451,,Pmmn
JVASP-69348,BaZnCl2,FAILED_JVASP-69348.cif,1.144,1.113,mBJ,-0.031,-1.65001,,P4/mmm
JVASP-1294,BaSe,FAILED_JVASP-1294.cif,1.915,2.851,mBJ,0.936,-2.16602,,Fm-3m
JVASP-66478,Ba4ReCl,FAILED_JVASP-66478.cif,0.0,0.0,mBJ,0.0,0.89153,,F-43m
JVASP-67028,HfBeRu,FAILED_JVASP-67028.cif,0.0,0.0,mBJ,0.0,-0.3833,,I4mm
JVASP-66321,BaCaTi,FAILED_JVASP-66321.cif,0.0,0.0,mBJ,0.0,1.21442,,F-43m
JVASP-14204,SbCl4F,FAILED_JVASP-14204.cif,1.216,2.404,mBJ,1.188,-0.9665,,I-4
JVASP-61639,Na4BeAlSi4ClO12,FAILED_JVASP-61639.cif,4.766,7.65,mBJ,2.884,-2.76184,,I-4
JVASP-42336,Fe4O5F3,FAILED_JVASP-42336.cif,0.0,0.0,mBJ,0.0,-1.60633,,P2_1
JVASP-66604,Ba4MnCr,FAILED_JVASP-66604.cif,0.0,0.0,mBJ,0.0,1.81499,,F-43m
JVASP-69266,BaTi2Bi,FAILED_JVASP-69266.cif,0.0,0.0,mBJ,0.0,0.41965,,P4/mmm
JVASP-43204,Li2MnNb3O8,FAILED_JVASP-43204.cif,0.0,0.0,mBJ,0.0,-2.37759,,R3m
JVASP-66563,Ba4CrNi,FAILED_JVASP-66563.cif,0.0,0.0,mBJ,0.0,1.08741,,F-43m
JVASP-66666,Ba4PW,FAILED_JVASP-66666.cif,0.0,0.0,mBJ,0.0,1.10695,,F-43m
JVASP-66237,BaTcCl,FAILED_JVASP-66237.cif,0.0,0.0,mBJ,0.0,0.64479,,F-43m
JVASP-4843,BN,FAILED_JVASP-4843.cif,4.366,5.885,mBJ,1.519,-1.38447,,R3m
JVASP-28372,GaP,FAILED_JVASP-28372.cif,1.155,1.651,mBJ,0.496,0.02467,,R-3m
JVASP-66635,BaSbBr,FAILED_JVASP-66635.cif,0.0,0.0,mBJ,0.0,-0.79504,,F-43m
JVASP-90564,Y3Mg,FAILED_JVASP-90564.cif,0.0,0.0,mBJ,0.0,-0.00187,,P6_3/mmc
JVASP-66363,BaTeBr,FAILED_JVASP-66363.cif,0.0,0.0,mBJ,0.0,-1.34739,,F-43m
JVASP-85498,LaH3O3,FAILED_JVASP-85498.cif,3.781,3.764,mBJ,-0.017,-2.04006,,P6_3/m
JVASP-66564,BaTcBi,FAILED_JVASP-66564.cif,0.0,0.0,mBJ,0.0,1.32207,,F-43m
JVASP-69105,BaNa2P,FAILED_JVASP-69105.cif,0.0,0.0,mBJ,0.0,-0.13684,,P4/mmm
JVASP-66442,BaBiPb,FAILED_JVASP-66442.cif,0.0,0.216,mBJ,0.216,-0.17079,,F-43m
JVASP-66694,Be2FePt,FAILED_JVASP-66694.cif,0.0,0.0,mBJ,0.0,-0.27093,,P4mm
JVASP-63770,UAu2,FAILED_JVASP-63770.cif,0.0,0.0,mBJ,0.0,-0.33483,,P6/mmm
JVASP-3126,TaCu3S4,FAILED_JVASP-3126.cif,2.057,2.126,mBJ,0.069,-0.65556,,P-43m
JVASP-63879,CaB2H8,FAILED_JVASP-63879.cif,4.801,6.572,mBJ,1.771,-0.38989,,Fddd
JVASP-60706,CuHgSeBr,FAILED_JVASP-60706.cif,0.648,1.148,mBJ,0.5,-0.19067,,Pmma
JVASP-65694,Ba2VTe,FAILED_JVASP-65694.cif,0.0,0.0,mBJ,0.0,-0.16553,,Fm-3m
JVASP-66518,BaNbCd,FAILED_JVASP-66518.cif,0.0,0.0,mBJ,0.0,1.41207,,F-43m
JVASP-66667,Ba4SnPt,FAILED_JVASP-66667.cif,0.0,0.0,mBJ,0.0,0.28294,,F-43m
JVASP-91817,NpH3,FAILED_JVASP-91817.cif,0.0,0.0,mBJ,0.0,-0.31918,,P6_3/mmc
JVASP-48421,V6O11F,FAILED_JVASP-48421.cif,0.0,0.0,mBJ,0.0,-2.60915,,Amm2
JVASP-66195,Ba4ZrPt,FAILED_JVASP-66195.cif,0.0,0.0,mBJ,0.0,0.84133,,F-43m
JVASP-66482,BaTiZn,FAILED_JVASP-66482.cif,0.0,0.0,mBJ,0.0,1.1747,,F-43m
JVASP-66605,BaCdBr,FAILED_JVASP-66605.cif,0.0,2.745,mBJ,2.745,-0.85502,,F-43m
JVASP-62975,BN,FAILED_JVASP-62975.cif,4.46,6.114,mBJ,1.654,-1.38442,,P6_3/mmc
JVASP-67029,ScBeFe,FAILED_JVASP-67029.cif,0.0,0.0,mBJ,0.0,0.21,,P3m1
JVASP-66443,Ba4TlRu,FAILED_JVASP-66443.cif,0.0,0.0,mBJ,0.0,0.85851,,F-43m
JVASP-69349,BaCuBr2,FAILED_JVASP-69349.cif,0.0,0.246,mBJ,0.246,-1.05981,,P4/mmm
JVASP-69305,Ba2NaBe,FAILED_JVASP-69305.cif,0.0,0.0,mBJ,0.0,0.32916,,Fm-3m
JVASP-15223,Dy2Al3Si2,FAILED_JVASP-15223.cif,0.0,0.0,mBJ,0.0,-0.54167,,C2/m
JVASP-69144,BaCr2Cd,FAILED_JVASP-69144.cif,0.0,0.0,mBJ,0.0,0.91657,,P4/mmm
JVASP-1420,Na2Te,FAILED_JVASP-1420.cif,2.137,3.786,mBJ,1.649,-1.00223,,Fm-3m
JVASP-63469,GaAsO4,FAILED_JVASP-63469.cif,3.198,5.197,mBJ,1.999,-1.52689,,P3_121
JVASP-61109,Na4BeAlSi4ClO12,FAILED_JVASP-61109.cif,4.766,7.651,mBJ,2.885,-2.76184,,I-4
JVASP-66322,Ba4InIr,FAILED_JVASP-66322.cif,0.0,0.0,mBJ,0.0,0.68932,,F-43m
JVASP-47059,ZnCoO3,FAILED_JVASP-47059.cif,0.0,0.0,mBJ,0.0,-1.22766,,C2/c
JVASP-65767,BaNa2Si,FAILED_JVASP-65767.cif,0.0,0.0,mBJ,0.0,0.18102,,P4/mmm
JVASP-42259,LiMn2B2O6,FAILED_JVASP-42259.cif,0.0,0.0,mBJ,0.0,-2.11934,,P-1
JVASP-62190,K6Na3AlSb4,FAILED_JVASP-62190.cif,0.854,1.745,mBJ,0.891,-0.54824,,P6_3/mmc
JVASP-66565,BaNaCl,FAILED_JVASP-66565.cif,0.635,0.689,mBJ,0.054,-0.83441,,F-43m
JVASP-66026,BaCaTl,FAILED_JVASP-66026.cif,0.0,0.0,mBJ,0.0,0.19213,,F-43m
JVASP-69065,KBaV4,FAILED_JVASP-69065.cif,0.0,0.0,mBJ,0.0,1.05092,,F-43m
JVASP-66638,BaLiTl,FAILED_JVASP-66638.cif,0.0,0.0,mBJ,0.0,0.19293,,F-43m
JVASP-65335,BaMn2Hg,FAILED_JVASP-65335.cif,0.0,0.0,mBJ,0.0,0.76245,,P4/mmm
JVASP-22707,CaCd3O4,FAILED_JVASP-22707.cif,0.352,2.099,mBJ,1.747,-1.71067,,Cmmm
JVASP-63622,RbNa2AuO2,FAILED_JVASP-63622.cif,2.348,3.377,mBJ,1.029,-1.24152,,Pnnm
JVASP-67265,TiBeRh,FAILED_JVASP-67265.cif,0.0,0.0,mBJ,0.0,-0.23881,,P3m1
JVASP-91772,RbNa3H4,FAILED_JVASP-91772.cif,2.986,5.215,mBJ,2.229,-0.19354,,Pm-3m
JVASP-65695,BaMgCl2,FAILED_JVASP-65695.cif,0.054,0.435,mBJ,0.381,-1.61036,,P4mm
JVASP-65583,BaGa2Cl,FAILED_JVASP-65583.cif,0.0,0.0,mBJ,0.0,-0.81906,,P4/mmm
JVASP-66606,BaGaBr,FAILED_JVASP-66606.cif,0.0,0.0,mBJ,0.0,-0.62246,,F-43m
JVASP-66959,CaTaBe,FAILED_JVASP-66959.cif,0.0,0.0,mBJ,0.0,0.41176,,I4mm
JVASP-49957,Li2RhO3,FAILED_JVASP-49957.cif,0.0,0.0,mBJ,0.0,-1.62416,,C2/m
JVASP-66402,BaCdTe,FAILED_JVASP-66402.cif,1.548,1.741,mBJ,0.193,-0.87684,,F-43m
JVASP-66365,BaNaPb,FAILED_JVASP-66365.cif,0.0,0.0,mBJ,0.0,0.03739,,F-43m
JVASP-52575,Ca2CuB2H12O12,FAILED_JVASP-52575.cif,0.714,1.087,mBJ,0.373,-1.60978,,P-1
JVASP-48181,Fe4O7F,FAILED_JVASP-48181.cif,0.0,0.0,mBJ,0.0,-1.51418,,Cm
JVASP-66522,Ba4FePd,FAILED_JVASP-66522.cif,0.0,0.0,mBJ,0.0,0.92665,,F-43m
JVASP-69350,Ba2TiBr,FAILED_JVASP-69350.cif,0.0,0.0,mBJ,0.0,-0.06471,,Fm-3m
JVASP-66671,Ba4VPt,FAILED_JVASP-66671.cif,0.0,0.0,mBJ,0.0,1.15271,,F-43m
JVASP-61646,K3AlF6,FAILED_JVASP-61646.cif,6.792,10.366,mBJ,3.574,-3.35975,,Fm-3m
JVASP-67430,BeTcW,FAILED_JVASP-67430.cif,0.0,0.0,mBJ,0.0,0.08106,,P3m1
JVASP-69108,BaSr2Sc,FAILED_JVASP-69108.cif,0.0,0.0,mBJ,0.0,0.20293,,P4/mmm
JVASP-61909,Na4BeAlSi4ClO12,FAILED_JVASP-61909.cif,4.766,7.65,mBJ,2.884,-2.76184,,I-4
JVASP-69272,Ba2MgSn,FAILED_JVASP-69272.cif,0.0,0.0,mBJ,0.0,-0.47101,,Fm-3m
JVASP-42577,Li2FeO3,FAILED_JVASP-42577.cif,0.053,0.0,mBJ,-0.053,-1.89579,,C2/m
JVASP-86410,Ba2SnO4,FAILED_JVASP-86410.cif,2.647,3.768,mBJ,1.121,-2.55837,,I4/mmm
JVASP-91586,CaFeAsF,FAILED_JVASP-91586.cif,0.0,0.0,mBJ,0.0,-1.94093,,P4/nmm
JVASP-86761,Ca3SiBr2,FAILED_JVASP-86761.cif,0.0,0.0,mBJ,0.0,-1.15984,,Cm
JVASP-66404,Ba4GaRu,FAILED_JVASP-66404.cif,0.0,0.0,mBJ,0.0,0.94356,,F-43m
JVASP-65769,Ba2SbBr,FAILED_JVASP-65769.cif,0.979,1.353,mBJ,0.374,-1.56827,,Fm-3m
JVASP-66241,BaCaIn,FAILED_JVASP-66241.cif,0.0,0.0,mBJ,0.0,0.18498,,F-43m
JVASP-69145,BaBrCl4,FAILED_JVASP-69145.cif,0.0,0.0,mBJ,0.0,-0.88933,,F-43m
JVASP-67578,NaCaBe,FAILED_JVASP-67578.cif,0.0,0.0,mBJ,0.0,0.40829,,I4mm
JVASP-63306,BeB2C2,FAILED_JVASP-63306.cif,0.473,1.311,mBJ,0.838,-0.18467,,Pmmn
JVASP-66485,BaTlSb,FAILED_JVASP-66485.cif,0.713,0.883,mBJ,0.17,-0.40276,,F-43m
JVASP-66672,Ba4InRh,FAILED_JVASP-66672.cif,0.0,0.0,mBJ,0.0,0.60373,,F-43m
JVASP-63127,CrB4,FAILED_JVASP-63127.cif,0.0,0.0,mBJ,0.0,-0.29257,,Pnnm
JVASP-66567,BaZnTe,FAILED_JVASP-66567.cif,1.623,1.814,mBJ,0.191,-0.82474,,F-43m
JVASP-61119,NdSi2Au2,FAILED_JVASP-61119.cif,0.0,0.0,mBJ,0.0,-0.57502,,I4/mmm
JVASP-66608,BaBeBi,FAILED_JVASP-66608.cif,0.0,0.0,mBJ,0.0,0.49024,,F-43m
JVASP-69066,BaVTe2,FAILED_JVASP-69066.cif,0.0,0.0,mBJ,0.0,-0.58257,,P4mm
JVASP-62827,MgB2H8,FAILED_JVASP-62827.cif,5.929,8.352,mBJ,2.423,-0.22931,,Pmc2_1
JVASP-62191,CuAs4S3Cl,FAILED_JVASP-62191.cif,1.422,2.033,mBJ,0.611,-0.23709,,Pbcm
JVASP-63485,Ag3AsS4,FAILED_JVASP-63485.cif,0.287,1.542,mBJ,1.255,-0.09303,,Pmn2_1
JVASP-5824,Ta3SBr7,FAILED_JVASP-5824.cif,0.79,1.167,mBJ,0.377,-0.97968,,Cm
JVASP-69353,Ba2MgSb,FAILED_JVASP-69353.cif,0.0,0.172,mBJ,0.172,-0.58728,,Fm-3m
JVASP-66786,BeNiHg,FAILED_JVASP-66786.cif,0.0,0.0,mBJ,0.0,0.16995,,I4mm
JVASP-3414,InS,FAILED_JVASP-3414.cif,1.037,1.769,mBJ,0.732,-0.58402,,Pnnm
JVASP-65696,BaYSb2,FAILED_JVASP-65696.cif,0.0,0.0,mBJ,0.0,-0.75354,,P4/mmm
JVASP-66446,Ba4ScW,FAILED_JVASP-66446.cif,0.0,0.0,mBJ,0.0,1.34533,,F-43m
JVASP-69186,BaNa2P,FAILED_JVASP-69186.cif,0.0,0.0,mBJ,0.0,-0.13705,,P4/mmm
JVASP-67349,Be2NbBi,FAILED_JVASP-67349.cif,0.0,0.0,mBJ,0.0,0.54457,,P4mm
JVASP-66405,BaHgSb,FAILED_JVASP-66405.cif,0.0,0.0,mBJ,0.0,-0.3028,,F-43m
JVASP-52219,U3O5,FAILED_JVASP-52219.cif,0.0,0.0,mBJ,0.0,-3.23352,,P3m1
JVASP-69148,Ba2LiNb,FAILED_JVASP-69148.cif,0.0,0.0,mBJ,0.0,0.72002,,Fm-3m
JVASP-66640,BaTcBr,FAILED_JVASP-66640.cif,0.0,0.0,mBJ,0.0,0.73379,,F-43m
JVASP-61120,Al2HgSe4,FAILED_JVASP-61120.cif,0.448,1.362,mBJ,0.914,-0.64756,,Fd-3m
JVASP-66199,Ba4OsBr,FAILED_JVASP-66199.cif,0.0,0.0,mBJ,0.0,0.73272,,F-43m
JVASP-66371,BaMgCl,FAILED_JVASP-66371.cif,0.0,1.926,mBJ,1.926,-0.6864,,F-43m
JVASP-14206,Rb2CrCl4,FAILED_JVASP-14206.cif,0.0,0.0,mBJ,0.0,-1.22318,,I4/mmm
JVASP-66673,BaLiIn,FAILED_JVASP-66673.cif,0.0,0.0,mBJ,0.0,0.21353,,F-43m
JVASP-48187,LiCoGeO4,FAILED_JVASP-48187.cif,0.0,0.0,mBJ,0.0,-1.5199,,Pc
JVASP-66447,Ba4TiFe,FAILED_JVASP-66447.cif,0.0,0.0,mBJ,0.0,1.39942,,F-43m