material_id,formula,cif_path,pbe_bandgap,hse_bandgap,gap_type,correction,formation_energy,total_energy,spacegroup
JVASP-79569,MgO,FAILED_JVASP-79569.cif,3.666,5.642,mBJ,1.976,-2.94925,,P6_3/mmc
JVASP-36352,DyBiPd,FAILED_JVASP-36352.cif,0.0,0.0,mBJ,0.0,-0.94711,,F-43m
JVASP-78726,Si,FAILED_JVASP-78726.cif,0.0,0.0,mBJ,0.0,0.39496,,I4_1/amd
JVASP-34291,SiO2,FAILED_JVASP-34291.cif,4.036,5.724,mBJ,1.688,-2.58935,,Pc
JVASP-79522,CuO,FAILED_JVASP-79522.cif,0.0,0.0,mBJ,0.0,-0.73202,,P4_2/mmc
JVASP-42701,Mn4O7F,FAILED_JVASP-42701.cif,0.0,0.0,mBJ,0.0,-1.866,,P1
JVASP-79204,BN,FAILED_JVASP-79204.cif,5.431,6.744,mBJ,1.313,-1.31808,,P6_3mc
JVASP-9786,RbSO2F,FAILED_JVASP-9786.cif,4.046,5.93,mBJ,1.884,-1.91175,,P2_1/m
JVASP-13416,NdTa3O9,FAILED_JVASP-13416.cif,3.367,4.404,mBJ,1.037,-3.24591,,P2_1/m
JVASP-12968,Ga2TeO6,FAILED_JVASP-12968.cif,0.958,2.168,mBJ,1.21,-1.60121,,P4_2/mnm
JVASP-34841,FeAs2O7,FAILED_JVASP-34841.cif,0.03,0.0,mBJ,-0.03,-1.12915,,C2
JVASP-29560,HfBrN,FAILED_JVASP-29560.cif,2.204,3.243,mBJ,1.039,-1.81582,,Pmmn
JVASP-51004,MoH2O4,FAILED_JVASP-51004.cif,2.58,3.18,mBJ,0.6,-1.56608,,P-1
JVASP-78517,VNi2,FAILED_JVASP-78517.cif,0.0,0.0,mBJ,0.0,-0.25779,,Immm
JVASP-36018,GeC,FAILED_JVASP-36018.cif,1.927,2.616,mBJ,0.689,0.416,,F-43m
JVASP-22536,KSc2F7,FAILED_JVASP-22536.cif,5.763,6.85,mBJ,1.087,-3.94317,,Cmmm
JVASP-79524,YbNiC2,FAILED_JVASP-79524.cif,0.0,0.045,mBJ,0.045,-0.43786,,Amm2
JVASP-79483,CaMg,FAILED_JVASP-79483.cif,0.0,0.0,mBJ,0.0,-0.11617,,Pm-3m
JVASP-78873,CuBrO2,FAILED_JVASP-78873.cif,0.0,0.0,mBJ,0.0,-0.2996,,R-3m
JVASP-34236,BeZnO2,FAILED_JVASP-34236.cif,2.972,4.478,mBJ,1.506,-2.26986,,I-42d
JVASP-79091,NpSnAu2,FAILED_JVASP-79091.cif,0.0,0.0,mBJ,0.0,-0.33456,,Fm-3m
JVASP-10496,NaAlO2,FAILED_JVASP-10496.cif,4.145,6.579,mBJ,2.434,-2.82645,,Pna2_1
JVASP-11528,SnO2,FAILED_JVASP-11528.cif,1.846,3.477,mBJ,1.631,-1.66847,,C2/m
JVASP-59652,Co3B,FAILED_JVASP-59652.cif,0.0,0.0,mBJ,0.0,-0.16403,,Pnma
JVASP-79609,RbN,FAILED_JVASP-79609.cif,0.0,0.0,mBJ,0.0,1.20924,,Immm
JVASP-29793,AlH3O3,FAILED_JVASP-29793.cif,5.28,7.292,mBJ,2.012,-1.83524,,P-1
JVASP-5230,SnBr4,FAILED_JVASP-5230.cif,2.218,3.533,mBJ,1.315,-0.62991,,P2_1/c
JVASP-49669,Mg2TaSbO6,FAILED_JVASP-49669.cif,1.228,1.811,mBJ,0.583,-2.47875,,P2_1/m
JVASP-78836,TiCo2Si,FAILED_JVASP-78836.cif,0.0,0.0,mBJ,0.0,-0.61821,,Fm-3m
JVASP-22636,RbSb2,FAILED_JVASP-22636.cif,0.385,1.003,mBJ,0.618,-0.34597,,C2/m
JVASP-34237,V2CdO6,FAILED_JVASP-34237.cif,2.072,2.459,mBJ,0.387,-2.22086,,C2/m
JVASP-36176,Cr3Ni,FAILED_JVASP-36176.cif,0.0,0.0,mBJ,0.0,0.16239,,I4/mmm
JVASP-79269,TlBr,FAILED_JVASP-79269.cif,2.208,3.048,mBJ,0.84,-0.88792,,Cmcm
JVASP-10813,CaV2S4,FAILED_JVASP-10813.cif,0.0,0.0,mBJ,0.0,-1.19785,,I4_1/amd
JVASP-9710,Na4UO5,FAILED_JVASP-9710.cif,2.24,2.378,mBJ,0.138,-2.55054,,I4/m
JVASP-36222,TiO2,FAILED_JVASP-36222.cif,1.188,1.667,mBJ,0.479,-2.99251,,Fm-3m
JVASP-78735,USe,FAILED_JVASP-78735.cif,0.0,0.0,mBJ,0.0,-1.00607,,Fm-3m
JVASP-51368,ScMo3O8,FAILED_JVASP-51368.cif,0.0,0.049,mBJ,0.049,-2.43175,,Cm
JVASP-10562,Rb2NbAgSe4,FAILED_JVASP-10562.cif,1.836,2.051,mBJ,0.215,-0.96916,,Fddd
JVASP-79486,MgSc2Ru,FAILED_JVASP-79486.cif,0.0,0.0,mBJ,0.0,-0.42401,,P4/mmm
JVASP-78737,UTe,FAILED_JVASP-78737.cif,0.0,0.0,mBJ,0.0,-0.40675,,Fm-3m
JVASP-79526,CaO,FAILED_JVASP-79526.cif,2.008,5.009,mBJ,3.001,-2.997,,I4/mmm
JVASP-59606,YbBa2NbO6,FAILED_JVASP-59606.cif,0.0,0.0,mBJ,0.0,-3.0139,,Fm-3m
JVASP-69,NbSe2,FAILED_JVASP-69.cif,0.0,0.0,mBJ,0.0,-0.86256,,P6_3/mmc
JVASP-79655,Ga,FAILED_JVASP-79655.cif,0.0,0.0,mBJ,0.0,0.00834,,Cmcm
JVASP-30354,CrCo5O12,FAILED_JVASP-30354.cif,0.0,0.0,mBJ,0.0,-1.12898,,C2/m
JVASP-42702,SrCaI4,FAILED_JVASP-42702.cif,3.423,4.233,mBJ,0.81,-1.71989,,P2_1/c
JVASP-79825,CrS,FAILED_JVASP-79825.cif,0.0,0.0,mBJ,0.0,-0.5263,,P6_3/mmc
JVASP-12970,Mg3BN3,FAILED_JVASP-12970.cif,1.598,2.529,mBJ,0.931,-1.07895,,P6_3/mmc
JVASP-12938,Na2MgCl4,FAILED_JVASP-12938.cif,5.168,7.93,mBJ,2.762,-1.95151,,Pbam
JVASP-79309,CuS,FAILED_JVASP-79309.cif,0.0,0.0,mBJ,0.0,-0.25291,,F-43m
JVASP-78663,BaCl2,FAILED_JVASP-78663.cif,5.594,7.358,mBJ,1.764,-2.67644,,Fm-3m
JVASP-79490,PbSe,FAILED_JVASP-79490.cif,0.943,1.479,mBJ,0.536,-0.54594,,Cmcm
JVASP-78875,Hg,FAILED_JVASP-78875.cif,0.0,0.0,mBJ,0.0,0.23986,,I4/mmm
JVASP-36264,LuCd2,FAILED_JVASP-36264.cif,0.0,0.0,mBJ,0.0,-0.28555,,P6/mmm
JVASP-12971,Ti4Bi2O11,FAILED_JVASP-12971.cif,2.135,2.598,mBJ,0.463,-2.72316,,C2/m
JVASP-79527,SnS,FAILED_JVASP-79527.cif,1.002,1.099,mBJ,0.097,-0.54606,,P2_1/m
JVASP-55606,LiIO3,FAILED_JVASP-55606.cif,3.609,4.599,mBJ,0.99,-1.06078,,Pna2_1
JVASP-28449,ThTe3,FAILED_JVASP-28449.cif,0.417,0.898,mBJ,0.481,-0.99285,,P2_1/m
JVASP-79760,GaAgS2,FAILED_JVASP-79760.cif,0.609,1.896,mBJ,1.287,-0.39223,,R3m
JVASP-36396,Ca2Pb,FAILED_JVASP-36396.cif,0.705,1.031,mBJ,0.326,-0.59945,,Fm-3m
JVASP-79107,TmLuZn2,FAILED_JVASP-79107.cif,0.0,0.0,mBJ,0.0,-0.38542,,Fm-3m
JVASP-58493,AlV2O4,FAILED_JVASP-58493.cif,0.0,0.0,mBJ,0.0,-2.64761,,R-3m
JVASP-79761,GaAgO2,FAILED_JVASP-79761.cif,0.454,1.72,mBJ,1.266,-1.29303,,R3m
JVASP-50189,HoHO2,FAILED_JVASP-50189.cif,4.948,6.937,mBJ,1.989,-2.79869,,Pmn2_1
JVASP-79895,HfInPd2,FAILED_JVASP-79895.cif,0.0,0.0,mBJ,0.0,-0.67333,,Fm-3m
JVASP-30619,MoN,FAILED_JVASP-30619.cif,0.0,0.0,mBJ,0.0,-0.31607,,I4/mmm
JVASP-79613,ZrBr,FAILED_JVASP-79613.cif,0.0,0.0,mBJ,0.0,-0.9866,,P-3m1
JVASP-79429,HoErRu2,FAILED_JVASP-79429.cif,0.0,0.0,mBJ,0.0,-0.43509,,Fm-3m
JVASP-78524,MgNb2,FAILED_JVASP-78524.cif,0.0,0.0,mBJ,0.0,0.24698,,C2/m
JVASP-10698,Sm3AuO6,FAILED_JVASP-10698.cif,1.866,2.152,mBJ,0.286,-2.88816,,P-1
JVASP-36020,TcN,FAILED_JVASP-36020.cif,0.0,0.0,mBJ,0.0,-0.03937,,F-43m
JVASP-79528,K3Pd,FAILED_JVASP-79528.cif,0.0,0.0,mBJ,0.0,0.10507,,Pm-3m
JVASP-34619,RbFeF4,FAILED_JVASP-34619.cif,0.0,0.0,mBJ,0.0,-2.52474,,P4/mmm
JVASP-9788,Na2ZnSiO4,FAILED_JVASP-9788.cif,3.442,5.834,mBJ,2.392,-2.29965,,Pc
JVASP-78883,LiMgSb,FAILED_JVASP-78883.cif,1.058,1.535,mBJ,0.477,-0.44362,,F-43m
JVASP-79210,Ti2MnSi,FAILED_JVASP-79210.cif,0.0,0.254,mBJ,0.254,-0.324,,F-43m
JVASP-79578,Mn2CuSb,FAILED_JVASP-79578.cif,0.0,0.0,mBJ,0.0,0.35972,,F-43m
JVASP-36177,Cr3Fe,FAILED_JVASP-36177.cif,0.0,0.0,mBJ,0.0,0.2178,,Pm-3m
JVASP-79313,AcInTe2,FAILED_JVASP-79313.cif,0.788,1.077,mBJ,0.289,-1.05514,,Fm-3m
JVASP-36135,HfAu,FAILED_JVASP-36135.cif,0.0,0.0,mBJ,0.0,-0.5768,,P4/nmm
JVASP-34621,SiO2,FAILED_JVASP-34621.cif,5.701,8.399,mBJ,2.698,-2.82176,,C2
JVASP-79657,PbS,FAILED_JVASP-79657.cif,1.291,1.285,mBJ,-0.006,-0.65589,,I4/mmm
JVASP-49880,Na2Be2O3,FAILED_JVASP-49880.cif,4.649,7.392,mBJ,2.743,-2.36099,,P2_1/c
JVASP-28473,Te6Mo2W,FAILED_JVASP-28473.cif,0.876,0.832,mBJ,-0.044,-0.14459,,P-6m2
JVASP-36357,PbS,FAILED_JVASP-36357.cif,0.0,0.678,mBJ,0.678,-0.51022,,P-6m2
JVASP-30358,TiV2CrO10,FAILED_JVASP-30358.cif,1.26,1.481,mBJ,0.221,-2.32368,,P-4m2
JVASP-78669,YbNiSb,FAILED_JVASP-78669.cif,0.0,0.0,mBJ,0.0,-0.72325,,F-43m
JVASP-79614,TmTlS2,FAILED_JVASP-79614.cif,1.433,2.105,mBJ,0.672,-1.62311,,R-3m
JVASP-79836,Ho2RuRh,FAILED_JVASP-79836.cif,0.0,0.0,mBJ,0.0,-0.71338,,Fm-3m
JVASP-43501,MnAgO3,FAILED_JVASP-43501.cif,0.0,0.0,mBJ,0.0,-1.17942,,R-3
JVASP-58494,AlNi2O4,FAILED_JVASP-58494.cif,0.0,0.0,mBJ,0.0,-1.66706,,Fd-3m
JVASP-79491,H3S,FAILED_JVASP-79491.cif,0.0,0.237,mBJ,0.237,0.39494,,Fmm2
JVASP-22637,CdIn2Se4,FAILED_JVASP-22637.cif,0.851,2.1,mBJ,1.249,-0.55673,,P-42m
JVASP-78893,NbS2,FAILED_JVASP-78893.cif,0.0,0.823,mBJ,0.823,-1.03087,,P-6m2
JVASP-9711,MgCO3,FAILED_JVASP-9711.cif,5.224,7.147,mBJ,1.923,-2.1954,,R-3c
JVASP-12939,Na2CdCl4,FAILED_JVASP-12939.cif,3.63,6.01,mBJ,2.38,-1.5826,,Pbam
JVASP-79665,MgMnO2,FAILED_JVASP-79665.cif,0.0,0.0,mBJ,0.0,-1.84639,,R-3m
JVASP-79277,MnGaNi2,FAILED_JVASP-79277.cif,0.0,0.0,mBJ,0.0,-0.24406,,I4/mmm
JVASP-36265,LiMnAs,FAILED_JVASP-36265.cif,0.0,0.0,mBJ,0.0,-0.05228,,F-43m
JVASP-10146,TiHgO3,FAILED_JVASP-10146.cif,1.427,2.183,mBJ,0.756,-1.97915,,R-3c
JVASP-79211,KPrS2,FAILED_JVASP-79211.cif,2.297,3.342,mBJ,1.045,-2.00828,,R-3m
JVASP-79529,RbN,FAILED_JVASP-79529.cif,0.0,0.0,mBJ,0.0,1.20922,,Pmmn
JVASP-79580,RbS,FAILED_JVASP-79580.cif,0.0,1.136,mBJ,1.136,-0.90831,,Cmcm
JVASP-79051,NaRu3,FAILED_JVASP-79051.cif,0.0,0.0,mBJ,0.0,0.75986,,I4/mmm
JVASP-51428,Ca2PI,FAILED_JVASP-51428.cif,1.603,2.156,mBJ,0.553,-1.55509,,R-3m
JVASP-22638,CdI2,FAILED_JVASP-22638.cif,2.186,3.206,mBJ,1.02,-0.58143,,R-3m
JVASP-36307,BeSnP2,FAILED_JVASP-36307.cif,0.9,1.529,mBJ,0.629,-0.2887,,I-42d
JVASP-79212,NaN3,FAILED_JVASP-79212.cif,3.972,5.289,mBJ,1.317,-0.14932,,R-3m
JVASP-78670,MnSbRh,FAILED_JVASP-78670.cif,0.0,0.0,mBJ,0.0,0.06052,,F-43m
JVASP-79492,BRh,FAILED_JVASP-79492.cif,0.0,0.0,mBJ,0.0,-0.15274,,P6_3/mmc
JVASP-80062,Er2OsPd,FAILED_JVASP-80062.cif,0.0,0.0,mBJ,0.0,-0.70067,,Fm-3m
JVASP-362,ZrSe3,FAILED_JVASP-362.cif,0.297,0.742,mBJ,0.445,-1.1037,,P2_1/m
JVASP-78914,WO2,FAILED_JVASP-78914.cif,0.0,0.0,mBJ,0.0,-1.85668,,R-3m
JVASP-79213,AlVCo2,FAILED_JVASP-79213.cif,0.0,0.0,mBJ,0.0,-0.4229,,Fm-3m
JVASP-79531,UAl2Cu,FAILED_JVASP-79531.cif,0.0,0.0,mBJ,0.0,0.20601,,Fm-3m
JVASP-79902,LiSc2Au,FAILED_JVASP-79902.cif,0.0,0.0,mBJ,0.0,-0.45678,,Fm-3m
JVASP-79052,NaTc3,FAILED_JVASP-79052.cif,0.0,0.0,mBJ,0.0,0.70602,,Fm-3m
JVASP-36397,AgN,FAILED_JVASP-36397.cif,0.0,0.0,mBJ,0.0,1.63137,,F-43m
JVASP-34293,CaCO3,FAILED_JVASP-34293.cif,4.781,6.437,mBJ,1.656,-2.39314,,Pnma
JVASP-79391,Ti2CuTc,FAILED_JVASP-79391.cif,0.0,0.0,mBJ,0.0,-0.31721,,Fm-3m
JVASP-11015,MgNi2O4,FAILED_JVASP-11015.cif,0.0,0.0,mBJ,0.0,-1.49301,,Fd-3m
JVASP-173,BBr3,FAILED_JVASP-173.cif,3.688,4.872,mBJ,1.184,-0.48109,,P6_3/m
JVASP-79214,AgO,FAILED_JVASP-79214.cif,0.0,0.0,mBJ,0.0,-0.22261,,C2/c
JVASP-36308,BeSiAs2,FAILED_JVASP-36308.cif,1.193,1.747,mBJ,0.554,-0.23504,,I-42d
JVASP-79903,HoAgHg2,FAILED_JVASP-79903.cif,0.0,0.0,mBJ,0.0,-0.22885,,Fm-3m
JVASP-79770,TmCoC2,FAILED_JVASP-79770.cif,0.0,0.0,mBJ,0.0,-0.4483,,Amm2
JVASP-34241,KClO3,FAILED_JVASP-34241.cif,5.044,6.252,mBJ,1.208,-0.77911,,R3m
JVASP-80498,Y3Mg,FAILED_JVASP-80498.cif,0.0,0.0,mBJ,0.0,0.01444,,Pm-3m
JVASP-42707,Mn4O7F,FAILED_JVASP-42707.cif,0.0,0.0,mBJ,0.0,-1.8477,,C2
JVASP-43504,LiVF4,FAILED_JVASP-43504.cif,0.001,0.0,mBJ,-0.001,-2.95515,,C2/m
JVASP-79329,Sr2SbAu,FAILED_JVASP-79329.cif,0.771,0.975,mBJ,0.204,-1.05124,,Fm-3m
JVASP-79496,Rb,FAILED_JVASP-79496.cif,0.0,0.0,mBJ,0.0,0.05577,,Fddd
JVASP-34243,ScTaPb2O6,FAILED_JVASP-34243.cif,2.733,3.732,mBJ,0.999,-2.57233,,Fm-3m
JVASP-36442,BaBrCl,FAILED_JVASP-36442.cif,4.483,5.703,mBJ,1.22,-2.55767,,Pnma
JVASP-79532,KN,FAILED_JVASP-79532.cif,0.0,0.0,mBJ,0.0,1.16812,,Pmmn
JVASP-79055,Ho3P,FAILED_JVASP-79055.cif,0.0,0.0,mBJ,0.0,-0.39447,,I4/mmm
JVASP-79581,ZrBr,FAILED_JVASP-79581.cif,0.0,0.0,mBJ,0.0,-1.05625,,R-3m
JVASP-80007,Ga2CoRu,FAILED_JVASP-80007.cif,0.0,0.0,mBJ,0.0,-0.25171,,Fm-3m
JVASP-36486,Sr3BiSb,FAILED_JVASP-36486.cif,0.0,0.133,mBJ,0.133,-0.67777,,Pm-3m
JVASP-36224,Ti2Sn,FAILED_JVASP-36224.cif,0.0,0.0,mBJ,0.0,0.26406,,F-43m
JVASP-79435,Mn2CoSn,FAILED_JVASP-79435.cif,0.0,0.0,mBJ,0.0,0.1274,,F-43m
JVASP-30574,MgCr2F12,FAILED_JVASP-30574.cif,0.0,0.0,mBJ,0.0,-2.56948,,P-1
JVASP-57544,SiO2,FAILED_JVASP-57544.cif,5.493,9.442,mBJ,3.949,-2.82012,,P6_3/mmc
JVASP-49884,Hf3N2O3,FAILED_JVASP-49884.cif,3.356,4.584,mBJ,1.228,-2.91645,,Cm
JVASP-13860,YbPO4,FAILED_JVASP-13860.cif,0.0,0.0,mBJ,0.0,-2.69011,,I4_1/a
JVASP-30359,Co5NiO12,FAILED_JVASP-30359.cif,0.0,0.0,mBJ,0.0,-0.95819,,C2/m
JVASP-80499,MgZr,FAILED_JVASP-80499.cif,0.0,0.0,mBJ,0.0,0.08925,,Pmma
JVASP-9712,ErNbO4,FAILED_JVASP-9712.cif,3.487,4.152,mBJ,0.665,-3.35198,,C2/c
JVASP-10147,SbOF,FAILED_JVASP-10147.cif,3.326,4.948,mBJ,1.622,-1.91766,,Pnma
JVASP-36528,Hf2Zn,FAILED_JVASP-36528.cif,0.0,0.0,mBJ,0.0,-0.17691,,I4/mmm
JVASP-79219,TmTe,FAILED_JVASP-79219.cif,0.0,0.0,mBJ,0.0,-1.23557,,P6_3/mmc
JVASP-79394,Ti2VIr,FAILED_JVASP-79394.cif,0.0,0.0,mBJ,0.0,-0.56764,,Fm-3m
JVASP-36266,AgC,FAILED_JVASP-36266.cif,0.0,0.0,mBJ,0.0,2.19497,,F-43m
JVASP-10168,ZnAg2O4,FAILED_JVASP-10168.cif,0.414,0.569,mBJ,0.155,-0.37953,,P-1
JVASP-79535,Sr2UNi,FAILED_JVASP-79535.cif,0.0,0.0,mBJ,0.0,1.02593,,Fm-3m
JVASP-36023,TcB,FAILED_JVASP-36023.cif,0.0,0.0,mBJ,0.0,0.68522,,F-43m
JVASP-79907,NbInRu2,FAILED_JVASP-79907.cif,0.0,0.0,mBJ,0.0,-0.22599,,Fm-3m
JVASP-50544,AlGaO3,FAILED_JVASP-50544.cif,2.811,4.656,mBJ,1.845,-2.56215,,Pnma
JVASP-11017,TiO2,FAILED_JVASP-11017.cif,2.607,3.012,mBJ,0.405,-3.16979,,I4/m
JVASP-80500,Y3Mg,FAILED_JVASP-80500.cif,0.0,0.0,mBJ,0.0,0.03678,,P-6m2
JVASP-50190,YTlO2,FAILED_JVASP-50190.cif,1.597,2.174,mBJ,0.577,-2.59152,,R-3m
JVASP-59608,Fe11Si5,FAILED_JVASP-59608.cif,0.0,0.0,mBJ,0.0,-0.2876,,Pm-3m
JVASP-79536,MoN,FAILED_JVASP-79536.cif,0.0,0.0,mBJ,0.0,0.27817,,Imma
JVASP-79966,Be3Ru,FAILED_JVASP-79966.cif,0.0,0.0,mBJ,0.0,-0.32049,,I4/mmm
JVASP-11532,Zn2NiN2,FAILED_JVASP-11532.cif,0.0,0.0,mBJ,0.0,0.11994,,C2/m
JVASP-22537,CClF3,FAILED_JVASP-22537.cif,6.69,8.032,mBJ,1.342,-1.37494,,Cmc2_1
JVASP-79498,Sc2MnSi,FAILED_JVASP-79498.cif,0.0,0.0,mBJ,0.0,-0.30708,,Fm-3m
JVASP-50097,Sc2O3,FAILED_JVASP-50097.cif,4.187,4.905,mBJ,0.718,-3.78164,,R-3c
JVASP-35968,LuGa,FAILED_JVASP-35968.cif,0.0,0.0,mBJ,0.0,-0.61561,,Cmcm
JVASP-42709,VOF3,FAILED_JVASP-42709.cif,2.658,3.083,mBJ,0.425,-2.70931,,Pm
JVASP-80721,YAgS2,FAILED_JVASP-80721.cif,1.7,2.411,mBJ,0.711,-1.42632,,R3m
JVASP-10148,Rb3TlF6,FAILED_JVASP-10148.cif,3.189,5.251,mBJ,2.062,-2.475,,I4/mmm
JVASP-36398,AgN,FAILED_JVASP-36398.cif,0.0,0.0,mBJ,0.0,1.59643,,P-6m2
JVASP-34296,LiCo2O4,FAILED_JVASP-34296.cif,0.0,0.0,mBJ,0.0,-1.4306,,P2/m
JVASP-51007,RbHO,FAILED_JVASP-51007.cif,3.914,5.977,mBJ,2.063,-1.41406,,Cmc2_1
JVASP-57502,ZnC2O4,FAILED_JVASP-57502.cif,3.27,4.34,mBJ,1.07,-1.29725,,P2_1/c
JVASP-34245,Rb4CO4,FAILED_JVASP-34245.cif,2.002,4.59,mBJ,2.588,-1.44673,,I222
JVASP-4388,CS2,FAILED_JVASP-4388.cif,2.881,3.83,HSE,0.949,0.24802,,Cmce
JVASP-79620,TmSi,FAILED_JVASP-79620.cif,0.0,0.0,mBJ,0.0,-0.78902,,Cmcm
JVASP-36445,Ca3N2,FAILED_JVASP-36445.cif,0.362,1.269,mBJ,0.907,-0.49906,,Pm-3m
JVASP-593,TaS2,FAILED_JVASP-593.cif,0.0,0.0,mBJ,0.0,-1.13046,,P-3m1
JVASP-57546,Ba3In2Cl2O5,FAILED_JVASP-57546.cif,1.554,3.44,mBJ,1.886,-2.39434,,I4/mmm
JVASP-30577,TiO2,FAILED_JVASP-30577.cif,2.393,2.78,mBJ,0.387,-3.06277,,Pmmn
JVASP-80722,AgH,FAILED_JVASP-80722.cif,0.795,1.577,mBJ,0.782,0.23938,,P6_3mc
JVASP-34458,CuHgSBr,FAILED_JVASP-34458.cif,0.616,1.175,mBJ,0.559,-0.22807,,Pmma
JVASP-49886,TiO2,FAILED_JVASP-49886.cif,3.06,3.458,mBJ,0.398,-3.16181,,Pnma
JVASP-24602,PdI2,FAILED_JVASP-24602.cif,0.65,0.761,mBJ,0.111,-0.22051,,P2_1/c
JVASP-4189,FeCl2,FAILED_JVASP-4189.cif,0.0,0.088,mBJ,0.088,-0.73842,,R-3m
JVASP-34303,TiGa4O8,FAILED_JVASP-34303.cif,2.433,2.961,mBJ,0.528,-2.27874,,C2/m
JVASP-79355,MnAlCu2,FAILED_JVASP-79355.cif,0.0,0.0,mBJ,0.0,-0.08681,,Fm-3m
JVASP-9790,Na2MgSiO4,FAILED_JVASP-9790.cif,4.102,6.816,mBJ,2.714,-2.64885,,Pc
JVASP-80077,Ho2ZnRu,FAILED_JVASP-80077.cif,0.0,0.0,mBJ,0.0,-0.43836,,Fm-3m
JVASP-34247,RbClO4,FAILED_JVASP-34247.cif,5.503,8.126,mBJ,2.623,-0.6049,,F-43m
JVASP-9713,YTaO4,FAILED_JVASP-9713.cif,4.054,5.196,mBJ,1.142,-3.52208,,P2/c
JVASP-50589,Mg3As2O8,FAILED_JVASP-50589.cif,3.897,5.889,mBJ,1.992,-2.16468,,P2_1/c
JVASP-57155,CaCO3,FAILED_JVASP-57155.cif,5.104,6.932,mBJ,1.828,-2.40147,,P321
JVASP-1112,PbS,FAILED_JVASP-1112.cif,0.564,1.298,mBJ,0.734,-0.63952,,Fm-3m
JVASP-12424,In2O3,FAILED_JVASP-12424.cif,1.195,2.786,mBJ,1.591,-1.70288,,R-3c
JVASP-10464,KVCu2Se4,FAILED_JVASP-10464.cif,0.836,0.873,mBJ,0.037,-0.71056,,Ama2
JVASP-36446,BeGeP2,FAILED_JVASP-36446.cif,0.873,1.633,mBJ,0.76,-0.3363,,I-42d
JVASP-34307,SNF,FAILED_JVASP-34307.cif,3.873,5.986,mBJ,2.113,-0.32975,,R-3
JVASP-58505,MoS2,FAILED_JVASP-58505.cif,0.0,0.0,mBJ,0.0,-0.72675,,F-43m
JVASP-21363,TiP2O7,FAILED_JVASP-21363.cif,2.28,2.405,mBJ,0.125,-2.47873,,P-1
JVASP-10913,CaBiAsO6,FAILED_JVASP-10913.cif,0.367,0.812,mBJ,0.445,-1.55685,,P2_1
JVASP-50098,Hf2N2O,FAILED_JVASP-50098.cif,2.057,3.104,mBJ,1.047,-2.39997,,C2/m
JVASP-22639,SiSe2,FAILED_JVASP-22639.cif,1.742,2.606,mBJ,0.864,-0.37098,,Ibam
JVASP-34249,HfO2,FAILED_JVASP-34249.cif,4.037,5.798,mBJ,1.761,-3.73413,,Fm-3m
JVASP-79621,H,FAILED_JVASP-79621.cif,8.253,13.885,mBJ,5.632,0.00563,,Cmcm
JVASP-28520,MoW2Se2S4,FAILED_JVASP-28520.cif,0.654,1.331,mBJ,0.677,-0.8089,,R3m
JVASP-50426,TmAlO3,FAILED_JVASP-50426.cif,6.247,7.703,mBJ,1.456,-3.66099,,Pnma
JVASP-79356,TiGaFe2,FAILED_JVASP-79356.cif,0.0,0.0,mBJ,0.0,-0.39301,,Fm-3m
JVASP-27600,CaBi2O4,FAILED_JVASP-27600.cif,1.067,2.078,mBJ,1.011,-1.72063,,Pmmn
JVASP-36587,HfMgO3,FAILED_JVASP-36587.cif,1.118,3.435,mBJ,2.317,-2.84434,,Pm-3m
JVASP-32749,BiI,FAILED_JVASP-32749.cif,0.82,1.014,mBJ,0.194,-0.29554,,C2/m
JVASP-57098,Na2CdSnS4,FAILED_JVASP-57098.cif,1.854,3.398,mBJ,1.544,-0.85683,,I-4
JVASP-10700,RbSbS2,FAILED_JVASP-10700.cif,1.949,2.795,mBJ,0.846,-0.83375,,P-1
JVASP-36529,ZrZnN2,FAILED_JVASP-36529.cif,2.142,2.689,mBJ,0.547,-1.07839,,P3m1
JVASP-12973,BaPd2S4,FAILED_JVASP-12973.cif,0.969,1.11,mBJ,0.141,-0.93482,,P2_1/m
JVASP-10149,KTcO4,FAILED_JVASP-10149.cif,3.331,3.784,mBJ,0.453,-1.90891,,I4_1/a
JVASP-36138,TlAs,FAILED_JVASP-36138.cif,0.0,0.0,mBJ,0.0,0.17532,,F-43m
JVASP-50028,SnO2,FAILED_JVASP-50028.cif,1.472,3.075,mBJ,1.603,-1.69216,,I4_1/amd
JVASP-57504,Ti2Bi2O7,FAILED_JVASP-57504.cif,2.676,2.883,mBJ,0.207,-2.39966,,Fd-3m
JVASP-81708,Hf2ZnHg,FAILED_JVASP-81708.cif,0.0,0.0,mBJ,0.0,0.06649,,C2/m
JVASP-80023,YbMgTl2,FAILED_JVASP-80023.cif,0.0,0.0,mBJ,0.0,-0.36076,,Fm-3m
JVASP-24608,AlTl2F5,FAILED_JVASP-24608.cif,3.937,5.22,mBJ,1.283,-2.83392,,Cmcm
JVASP-10500,SiO2,FAILED_JVASP-10500.cif,4.527,5.339,mBJ,0.812,-2.4297,,Pa-3
JVASP-10563,RbHfAgTe3,FAILED_JVASP-10563.cif,0.295,0.653,mBJ,0.358,-0.79869,,P2_1/m
JVASP-12974,Pr2NCl3,FAILED_JVASP-12974.cif,3.258,3.965,mBJ,0.707,-2.21276,,Ibam
JVASP-36180,CdSiP2,FAILED_JVASP-36180.cif,0.0,0.0,mBJ,0.0,0.6033,,Fm-3m
JVASP-29869,AlHO2,FAILED_JVASP-29869.cif,5.614,7.458,mBJ,1.844,-2.4744,,Cmc2_1
JVASP-59609,MnCoSi,FAILED_JVASP-59609.cif,0.0,0.0,mBJ,0.0,-0.34901,,Pnma
JVASP-10914,TiO2,FAILED_JVASP-10914.cif,1.739,2.252,mBJ,0.513,-3.05015,,Fd-3m
JVASP-36309,BeGeAs2,FAILED_JVASP-36309.cif,0.677,1.346,mBJ,0.669,-0.19972,,I-42d
JVASP-34308,Ti3O,FAILED_JVASP-34308.cif,0.0,0.0,mBJ,0.0,-1.38648,,P6_3/mcm
JVASP-4885,Rb2S5,FAILED_JVASP-4885.cif,1.679,2.699,mBJ,1.02,-0.71768,,P2_12_12_1
JVASP-36399,RuN,FAILED_JVASP-36399.cif,0.0,0.0,mBJ,0.0,0.76272,,Fm-3m
JVASP-79973,VGaRu2,FAILED_JVASP-79973.cif,0.0,0.0,mBJ,0.0,-0.43158,,Fm-3m
JVASP-80026,PaBi3,FAILED_JVASP-80026.cif,0.0,0.0,mBJ,0.0,-0.12334,,I4/mmm
JVASP-34647,MgAl2O4,FAILED_JVASP-34647.cif,5.482,6.669,mBJ,1.187,-3.17057,,Cmcm
JVASP-36024,TcB,FAILED_JVASP-36024.cif,0.0,0.0,mBJ,0.0,0.01081,,Fm-3m
JVASP-82056,LiAl2Au,FAILED_JVASP-82056.cif,0.0,0.403,mBJ,0.403,1.23522,,Immm
JVASP-29871,MnRe2O8,FAILED_JVASP-29871.cif,0.0,0.0,mBJ,0.0,-1.59912,,P-3m1
JVASP-36226,Ti2In,FAILED_JVASP-36226.cif,0.0,0.0,mBJ,0.0,0.51454,,F-43m
JVASP-49673,MgSbO3,FAILED_JVASP-49673.cif,2.126,2.671,mBJ,0.545,-2.00171,,P2_1/c
JVASP-30519,AlP,FAILED_JVASP-30519.cif,1.243,1.926,mBJ,0.683,0.00502,,P4/mbm
JVASP-51009,CaH2O2,FAILED_JVASP-51009.cif,3.96,6.759,mBJ,2.799,-1.79007,,P3m1
JVASP-10169,MgSb2O4,FAILED_JVASP-10169.cif,2.707,4.344,mBJ,1.637,-1.83595,,C2/m
JVASP-50429,TbGaO3,FAILED_JVASP-50429.cif,3.88,6.401,mBJ,2.521,-2.93896,,Pnma
JVASP-79441,YbKS2,FAILED_JVASP-79441.cif,0.0,0.0,mBJ,0.0,-1.51854,,R-3m
JVASP-58368,BeO,FAILED_JVASP-58368.cif,7.605,9.009,mBJ,1.404,-3.01401,,P4_2/mnm
JVASP-34648,RbCO2,FAILED_JVASP-34648.cif,3.014,4.245,mBJ,1.231,-1.66243,,Pbam
JVASP-50192,Y2TeO6,FAILED_JVASP-50192.cif,2.694,3.703,mBJ,1.009,-2.6822,,P4_2/mnm
JVASP-42714,Fe4O5F3,FAILED_JVASP-42714.cif,0.0,0.0,mBJ,0.0,-1.63906,,P-1
JVASP-79875,NaPmTe2,FAILED_JVASP-79875.cif,0.074,0.569,mBJ,0.495,-1.14651,,Fm-3m
JVASP-79923,MnAlRu2,FAILED_JVASP-79923.cif,0.0,0.0,mBJ,0.0,-0.3558,,Fm-3m
JVASP-9714,YNbO4,FAILED_JVASP-9714.cif,3.482,4.13,mBJ,0.648,-3.34639,,C2/c
JVASP-79627,NF,FAILED_JVASP-79627.cif,0.0,0.0,mBJ,0.0,0.24702,,R-3m
JVASP-79976,Lu2IrPd,FAILED_JVASP-79976.cif,0.0,0.0,mBJ,0.0,-1.10116,,Fm-3m
JVASP-12975,Ba2S3,FAILED_JVASP-12975.cif,1.548,2.783,mBJ,1.235,-1.80799,,I4_1md
JVASP-36487,Ba3AsP,FAILED_JVASP-36487.cif,0.11,0.714,mBJ,0.604,-0.75055,,Pm-3m