material_id,formula,cif_path,pbe_bandgap,hse_bandgap,gap_type,correction,formation_energy,total_energy,spacegroup
JVASP-37228,SmErMg2,FAILED_JVASP-37228.cif,0.0,0.0,mBJ,0.0,-0.07433,,Fm-3m
JVASP-40268,SmCd3,FAILED_JVASP-40268.cif,0.0,0.0,mBJ,0.0,-0.32485,,Fm-3m
JVASP-38030,SnBrF,FAILED_JVASP-38030.cif,2.281,2.889,mBJ,0.608,-1.62752,,P4/nmm
JVASP-17240,SmMn2Si2,FAILED_JVASP-17240.cif,0.0,0.0,mBJ,0.0,-0.53503,,I4/mmm
JVASP-38189,Rb3Tm,FAILED_JVASP-38189.cif,0.0,0.0,mBJ,0.0,0.57211,,Fm-3m
JVASP-54694,NdH3O3,FAILED_JVASP-54694.cif,3.769,6.336,mBJ,2.567,-2.01232,,P6_3/m
JVASP-39293,K3Sr,FAILED_JVASP-39293.cif,0.0,0.0,mBJ,0.0,0.10266,,I4/mmm
JVASP-25390,Rb,FAILED_JVASP-25390.cif,0.0,12.58,mBJ,12.58,-0.00094,,I4/mmm
JVASP-16368,MnAlPt2,FAILED_JVASP-16368.cif,0.0,0.0,mBJ,0.0,-0.64593,,Fm-3m
JVASP-38887,MgSc2Al,FAILED_JVASP-38887.cif,0.0,0.0,mBJ,0.0,-0.3017,,Fm-3m
JVASP-37261,SmRe3,FAILED_JVASP-37261.cif,0.0,0.0,mBJ,0.0,0.40695,,Fm-3m
JVASP-19701,MnTe,FAILED_JVASP-19701.cif,0.0,0.0,mBJ,0.0,0.05586,,Fm-3m
JVASP-16490,W,FAILED_JVASP-16490.cif,0.0,0.0,mBJ,0.0,0.09695,,Pm-3n
JVASP-16577,MnNi3,FAILED_JVASP-16577.cif,0.0,0.0,mBJ,0.0,-0.08064,,Pm-3m
JVASP-16774,MnAu4,FAILED_JVASP-16774.cif,0.0,0.0,mBJ,0.0,-0.04398,,I4/m
JVASP-25336,Sb,FAILED_JVASP-25336.cif,0.0,0.0,mBJ,0.0,0.30369,,P6_3/mmc
JVASP-38728,NpAl3,FAILED_JVASP-38728.cif,0.0,0.0,mBJ,0.0,-0.18962,,P6_3/mmc
JVASP-37730,Pm2InAg,FAILED_JVASP-37730.cif,0.0,0.0,mBJ,0.0,-0.40331,,Fm-3m
JVASP-38240,Rb3Hf,FAILED_JVASP-38240.cif,0.0,0.0,mBJ,0.0,1.07302,,Fm-3m
JVASP-19772,TaRu,FAILED_JVASP-19772.cif,0.0,0.0,mBJ,0.0,-0.30684,,P4/mmm
JVASP-15927,Ge2Mo,FAILED_JVASP-15927.cif,0.0,0.0,mBJ,0.0,-0.06933,,I4/mmm
JVASP-16532,ThGa2,FAILED_JVASP-16532.cif,0.0,0.0,mBJ,0.0,-0.62947,,P6/mmm
JVASP-17245,ZrPd,FAILED_JVASP-17245.cif,0.0,0.0,mBJ,0.0,-0.60822,,Pm-3m
JVASP-37963,Ag3N,FAILED_JVASP-37963.cif,0.0,0.0,mBJ,0.0,0.99606,,I4/mmm
JVASP-19633,LuAl2,FAILED_JVASP-19633.cif,0.0,0.0,mBJ,0.0,-0.49603,,Fd-3m
JVASP-39405,K3Mo,FAILED_JVASP-39405.cif,0.0,0.0,mBJ,0.0,1.15155,,I4/mmm
JVASP-17195,PtN,FAILED_JVASP-17195.cif,0.0,0.0,mBJ,0.0,1.25233,,Fm-3m
JVASP-16291,Te,FAILED_JVASP-16291.cif,0.0,0.0,mBJ,0.0,0.0383,,Pm-3m
JVASP-39076,SmCoSi3,FAILED_JVASP-39076.cif,0.0,0.0,mBJ,0.0,-0.60616,,I4mm
JVASP-38190,Rb3Zn,FAILED_JVASP-38190.cif,0.0,0.0,mBJ,0.0,0.0974,,I4/mmm
JVASP-25629,CaMnF5,FAILED_JVASP-25629.cif,0.0,0.0,mBJ,0.0,-2.97574,,C2/c
JVASP-16491,BeSe,FAILED_JVASP-16491.cif,0.387,0.996,mBJ,0.609,-0.31687,,Fm-3m
JVASP-38510,PrAl8Fe4,FAILED_JVASP-38510.cif,0.0,0.0,mBJ,0.0,-0.40697,,I4/mmm
JVASP-38451,PrNbO3,FAILED_JVASP-38451.cif,0.0,0.0,mBJ,0.0,-2.75455,,Pm-3m
JVASP-38031,ScClO,FAILED_JVASP-38031.cif,3.824,4.428,mBJ,0.604,-3.05098,,P4/nmm
JVASP-39022,Sm3V,FAILED_JVASP-39022.cif,0.0,0.0,mBJ,0.0,0.49624,,Fm-3m
JVASP-25159,Pr,FAILED_JVASP-25159.cif,0.0,0.0,mBJ,0.0,0.00593,,Fm-3m
JVASP-37390,SrGaSiH,FAILED_JVASP-37390.cif,0.572,1.037,mBJ,0.465,-0.4689,,P3m1
JVASP-25300,Si,FAILED_JVASP-25300.cif,0.0,0.0,mBJ,0.0,0.46501,,P1
JVASP-16578,MnZn,FAILED_JVASP-16578.cif,0.0,0.0,mBJ,0.0,0.1309,,Pm-3m
JVASP-37565,TmAlAg2,FAILED_JVASP-37565.cif,0.0,0.0,mBJ,0.0,-0.35535,,Fm-3m
JVASP-38032,SbClO,FAILED_JVASP-38032.cif,2.064,3.037,mBJ,0.973,-1.26137,,P4/nmm
JVASP-19643,HoGa2,FAILED_JVASP-19643.cif,0.0,0.0,mBJ,0.0,-0.62634,,P6/mmm
JVASP-25391,Kr,FAILED_JVASP-25391.cif,7.262,10.823,mBJ,3.561,0.00037,,R-3m
JVASP-40269,SmDyMg2,FAILED_JVASP-40269.cif,0.0,0.0,mBJ,0.0,-0.08024,,Fm-3m
JVASP-39406,LuBr,FAILED_JVASP-39406.cif,0.0,0.058,mBJ,0.058,-1.01408,,P6_3mc
JVASP-16293,Tm,FAILED_JVASP-16293.cif,0.0,0.0,mBJ,0.0,0.02418,,Fm-3m
JVASP-38550,Li3Pr,FAILED_JVASP-38550.cif,0.0,0.0,mBJ,0.0,0.20296,,Fm-3m
JVASP-19667,ZrTe,FAILED_JVASP-19667.cif,0.0,0.0,mBJ,0.0,-0.64471,,P6_3/mmc
JVASP-37262,Sm2CdIr,FAILED_JVASP-37262.cif,0.0,0.0,mBJ,0.0,-0.54736,,Fm-3m
JVASP-16369,MnAlRh2,FAILED_JVASP-16369.cif,0.0,0.0,mBJ,0.0,-0.63353,,Fm-3m
JVASP-26727,BaHg2Cl2O2,FAILED_JVASP-26727.cif,1.647,3.035,mBJ,1.388,-1.31852,,P4/mbm
JVASP-16294,Tm,FAILED_JVASP-16294.cif,0.0,0.0,mBJ,0.0,0.14599,,Im-3m
JVASP-25392,Kr,FAILED_JVASP-25392.cif,7.263,10.824,mBJ,3.561,0.00052,,P6_3/mmc
JVASP-23351,Na2MgAlF7,FAILED_JVASP-23351.cif,7.066,11.15,mBJ,4.084,-3.50866,,Ima2
JVASP-38241,HfZrZn2,FAILED_JVASP-38241.cif,0.0,0.0,mBJ,0.0,-0.24775,,Fm-3m
JVASP-1041,V,FAILED_JVASP-1041.cif,0.0,0.0,mBJ,0.0,0.0,,Im-3m
JVASP-39340,LiHoO3,FAILED_JVASP-39340.cif,0.0,0.0,mBJ,0.0,-2.11433,,Pm-3m
JVASP-54486,BaCo2P2O8,FAILED_JVASP-54486.cif,0.0,0.0,mBJ,0.0,-2.14917,,R-3
JVASP-25393,Li,FAILED_JVASP-25393.cif,0.0,0.0,mBJ,0.0,-0.00054,,P6_3/mmc
JVASP-39212,Lu3Ga,FAILED_JVASP-39212.cif,0.0,0.0,mBJ,0.0,-0.24243,,P6_3/mmc
JVASP-16493,PrO,FAILED_JVASP-16493.cif,0.0,2.584,mBJ,2.584,-2.93327,,Fm-3m
JVASP-39151,LiLu2Al,FAILED_JVASP-39151.cif,0.0,0.0,mBJ,0.0,-0.20696,,Fm-3m
JVASP-38033,GeClF,FAILED_JVASP-38033.cif,2.792,3.51,mBJ,0.718,-1.44863,,P4/nmm
JVASP-37608,Ti3Ni,FAILED_JVASP-37608.cif,0.0,0.0,mBJ,0.0,-0.10145,,Pm-3m
JVASP-16370,Mn2AlV,FAILED_JVASP-16370.cif,0.0,0.0,mBJ,0.0,-0.29451,,Fm-3m
JVASP-39077,SmHoRh2,FAILED_JVASP-39077.cif,0.0,0.0,mBJ,0.0,-0.85886,,Fm-3m
JVASP-36913,RbCaCl3,FAILED_JVASP-36913.cif,5.42,7.196,mBJ,1.776,-2.38869,,R-3c
JVASP-25394,Xe,FAILED_JVASP-25394.cif,6.134,8.577,mBJ,2.443,0.00899,,Im-3m
JVASP-38034,Rb2SCl6F,FAILED_JVASP-38034.cif,0.0,0.12,mBJ,0.12,-1.01329,,Fm-3m
JVASP-37391,Tm2AgHg,FAILED_JVASP-37391.cif,0.0,0.0,mBJ,0.0,-0.3801,,Fm-3m
JVASP-16615,TiRh,FAILED_JVASP-16615.cif,0.0,0.0,mBJ,0.0,-0.73094,,Pm-3m
JVASP-37519,Yb2Rb2O5,FAILED_JVASP-37519.cif,0.0,0.0,mBJ,0.0,-1.69597,,P4/mmm
JVASP-38890,LiNpIr2,FAILED_JVASP-38890.cif,0.0,0.0,mBJ,0.0,-0.45542,,Fm-3m
JVASP-37231,SmAg2Hg,FAILED_JVASP-37231.cif,0.0,0.0,mBJ,0.0,-0.22436,,Fm-3m
JVASP-39410,Ho3Pb,FAILED_JVASP-39410.cif,0.0,0.0,mBJ,0.0,-0.27641,,I4/mmm
JVASP-38551,Li3Pt,FAILED_JVASP-38551.cif,0.0,1.711,mBJ,1.711,-0.48641,,I4/mmm
JVASP-19634,TiIr,FAILED_JVASP-19634.cif,0.0,0.0,mBJ,0.0,-0.89182,,P4/mmm
JVASP-25395,Xe,FAILED_JVASP-25395.cif,6.147,8.554,mBJ,2.407,0.00013,,Fm-3m
JVASP-39152,MgCr,FAILED_JVASP-39152.cif,0.0,0.0,mBJ,0.0,0.6349,,Pm-3m
JVASP-867,Cu,FAILED_JVASP-867.cif,0.0,0.0,mBJ,0.0,0.0,,Fm-3m
JVASP-36762,AgBiO2,FAILED_JVASP-36762.cif,1.21,2.444,mBJ,1.234,-0.88073,,C2/m
JVASP-40072,Li2PrIn,FAILED_JVASP-40072.cif,0.0,0.0,mBJ,0.0,-0.33423,,Fm-3m
JVASP-37263,SmDyHg2,FAILED_JVASP-37263.cif,0.0,0.0,mBJ,0.0,-0.3792,,Fm-3m
JVASP-38803,LiLu2Rh,FAILED_JVASP-38803.cif,0.0,0.0,mBJ,0.0,-0.59297,,Fm-3m
JVASP-825,Au,FAILED_JVASP-825.cif,0.0,0.0,mBJ,0.0,0.0,,Fm-3m
JVASP-16295,Mn3AgN,FAILED_JVASP-16295.cif,0.0,0.0,mBJ,0.0,-0.04365,,Pm-3m
JVASP-25162,Be,FAILED_JVASP-25162.cif,0.0,0.0,mBJ,0.0,0.10784,,Im-3m
JVASP-16616,TmRh,FAILED_JVASP-16616.cif,0.0,0.0,mBJ,0.0,-1.01573,,Pm-3m
JVASP-39483,Re3F,FAILED_JVASP-39483.cif,0.0,0.0,mBJ,0.0,0.26149,,Fm-3m
JVASP-25306,C,FAILED_JVASP-25306.cif,4.457,5.035,mBJ,0.578,0.10166,,Fd-3m
JVASP-54695,AlHO2,FAILED_JVASP-54695.cif,6.177,7.499,mBJ,1.322,-2.4751,,Pnma
JVASP-17294,ThAl4C4,FAILED_JVASP-17294.cif,0.0,0.494,mBJ,0.494,-0.34402,,I4/m
JVASP-16372,ScAlNi2,FAILED_JVASP-16372.cif,0.0,0.0,mBJ,0.0,-0.67181,,Fm-3m
JVASP-16653,CoCu2SnS4,FAILED_JVASP-16653.cif,0.0,0.0,mBJ,0.0,-0.36433,,I-42m
JVASP-37520,SrAlGeH,FAILED_JVASP-37520.cif,0.885,1.245,mBJ,0.36,-0.6087,,P3m1
JVASP-16859,ZnCu2GeTe4,FAILED_JVASP-16859.cif,0.0,0.284,mBJ,0.284,-0.16707,,I-42m
JVASP-36971,TlAgCl3,FAILED_JVASP-36971.cif,0.0,0.0,mBJ,0.0,-0.69739,,Pm-3m
JVASP-38245,Rb3Hg,FAILED_JVASP-38245.cif,0.0,0.0,mBJ,0.0,-0.02323,,Fm-3m
JVASP-25337,Tl,FAILED_JVASP-25337.cif,0.0,0.0,mBJ,0.0,-0.0,,P6_3/mmc
JVASP-38607,LiLu2Ga,FAILED_JVASP-38607.cif,0.0,0.0,mBJ,0.0,-0.29589,,Fm-3m
JVASP-40599,Sm2MgAl,FAILED_JVASP-40599.cif,0.0,0.0,mBJ,0.0,-0.27833,,Fm-3m
JVASP-28885,Te2MoW3Se4S2,FAILED_JVASP-28885.cif,0.157,0.131,mBJ,-0.026,-0.46912,,P3m1
JVASP-39343,KErO3,FAILED_JVASP-39343.cif,0.0,0.0,mBJ,0.0,-2.13554,,Pm-3m
JVASP-56864,Ba3BiN,FAILED_JVASP-56864.cif,0.649,1.314,mBJ,0.665,-0.93276,,P6_3/mmc
JVASP-25307,N,FAILED_JVASP-25307.cif,6.839,9.042,mBJ,2.203,0.01169,,P6_3/mmc
JVASP-25397,Pr,FAILED_JVASP-25397.cif,0.0,0.0,mBJ,0.0,0.0064,,R-3m
JVASP-38036,Rb2NaGaF6,FAILED_JVASP-38036.cif,6.327,9.155,mBJ,2.828,-3.00529,,Fm-3m
JVASP-38193,Rb3Tl,FAILED_JVASP-38193.cif,0.0,0.0,mBJ,0.0,0.00443,,I4/mmm
JVASP-36914,RbCaI3,FAILED_JVASP-36914.cif,3.603,4.452,mBJ,0.849,-1.6154,,Pm
JVASP-37609,Tl3V,FAILED_JVASP-37609.cif,0.0,0.0,mBJ,0.0,0.65097,,I4/mmm
JVASP-38804,Ho2AlOs,FAILED_JVASP-38804.cif,0.0,0.0,mBJ,0.0,-0.37263,,Fm-3m
JVASP-16373,AlVNi2,FAILED_JVASP-16373.cif,0.0,0.0,mBJ,0.0,-0.3967,,Fm-3m
JVASP-19735,UB2,FAILED_JVASP-19735.cif,0.0,0.0,mBJ,0.0,-0.57951,,P6/mmm
JVASP-39446,RuRh3,FAILED_JVASP-39446.cif,0.0,0.0,mBJ,0.0,0.03451,,Pm-3m
JVASP-15887,Mn3B4,FAILED_JVASP-15887.cif,0.0,0.0,mBJ,0.0,-0.32178,,Immm
JVASP-17197,YCuSn,FAILED_JVASP-17197.cif,0.0,0.0,mBJ,0.0,-0.65127,,P6_3mc
JVASP-37264,SmErRh2,FAILED_JVASP-37264.cif,0.0,0.0,mBJ,0.0,-0.86938,,Fm-3m
JVASP-56868,GeI2,FAILED_JVASP-56868.cif,1.762,2.214,mBJ,0.452,-0.22113,,P-6m2
JVASP-16748,AgSbTe2,FAILED_JVASP-16748.cif,0.0,0.006,mBJ,0.006,-0.08584,,R-3m
JVASP-38194,Rb3Th,FAILED_JVASP-38194.cif,0.0,0.0,mBJ,0.0,0.92876,,Fm-3m
JVASP-38839,HgPd2Au,FAILED_JVASP-38839.cif,0.0,0.0,mBJ,0.0,-0.08691,,Fm-3m
JVASP-37303,SnI2,FAILED_JVASP-37303.cif,1.279,1.514,mBJ,0.235,-0.48255,,P4_2/mnm
JVASP-19939,YbZn,FAILED_JVASP-19939.cif,0.0,0.0,mBJ,0.0,-0.42763,,Pm-3m
JVASP-25340,H,FAILED_JVASP-25340.cif,8.842,14.075,mBJ,5.233,-9e-05,,I4/mmm
JVASP-39412,Lu2GaCu,FAILED_JVASP-39412.cif,0.0,0.0,mBJ,0.0,-0.47187,,Fm-3m
JVASP-38555,Li2AcTl,FAILED_JVASP-38555.cif,0.0,0.0,mBJ,0.0,-0.21764,,Fm-3m
JVASP-26728,RbAuS2O8,FAILED_JVASP-26728.cif,1.858,2.018,mBJ,0.16,-1.27572,,P-1
JVASP-25398,Na,FAILED_JVASP-25398.cif,0.0,0.0,mBJ,0.0,0.00014,,P6_3/mmc
JVASP-16374,Al3Pd2,FAILED_JVASP-16374.cif,0.0,0.0,mBJ,0.0,-0.78252,,P-3m1
JVASP-890,Ge,FAILED_JVASP-890.cif,0.0,0.606,mBJ,0.606,0.0,,Fd-3m
JVASP-36847,PbAuO2,FAILED_JVASP-36847.cif,0.59,0.876,mBJ,0.286,-0.74106,,P-1
JVASP-38247,Rb3Dy,FAILED_JVASP-38247.cif,0.0,0.0,mBJ,0.0,0.58855,,Fm-3m
JVASP-36689,SrWN3,FAILED_JVASP-36689.cif,1.125,1.643,mBJ,0.518,-0.92621,,P1
JVASP-37611,TmMg2,FAILED_JVASP-37611.cif,0.0,0.0,mBJ,0.0,-0.04493,,P6/mmm
JVASP-19635,NdAg,FAILED_JVASP-19635.cif,0.0,0.0,mBJ,0.0,-0.3014,,Pm-3m
JVASP-861,Cr,FAILED_JVASP-861.cif,0.0,0.0,mBJ,0.0,-0.0,,Im-3m
JVASP-36804,AgPbO2,FAILED_JVASP-36804.cif,0.285,0.617,mBJ,0.332,-0.74404,,C2/m
JVASP-16296,YbSi2Ag2,FAILED_JVASP-16296.cif,0.0,0.0,mBJ,0.0,-0.30828,,I4/mmm
JVASP-37014,K2O,FAILED_JVASP-37014.cif,2.001,5.285,mBJ,3.284,-1.25646,,R-3m
JVASP-40600,Sm2CuRu,FAILED_JVASP-40600.cif,0.0,0.0,mBJ,0.0,-0.29123,,Fm-3m
JVASP-40544,DyMgHg2,FAILED_JVASP-40544.cif,0.0,0.0,mBJ,0.0,-0.36041,,Fm-3m
JVASP-25310,Br,FAILED_JVASP-25310.cif,0.0,0.0,mBJ,0.0,0.49611,,Im-3m
JVASP-17263,Tb2ZnNi2,FAILED_JVASP-17263.cif,0.0,0.0,mBJ,0.0,-0.51354,,Immm
JVASP-39345,PdAu3,FAILED_JVASP-39345.cif,0.0,0.0,mBJ,0.0,-0.07605,,Pm-3m
JVASP-16375,PrAl,FAILED_JVASP-16375.cif,0.0,0.0,mBJ,0.0,-0.37543,,Pm-3m
JVASP-39486,Ru3Cl,FAILED_JVASP-39486.cif,0.0,0.0,mBJ,0.0,0.92222,,I4/mmm
JVASP-15888,NdBPd3,FAILED_JVASP-15888.cif,0.0,0.0,mBJ,0.0,-0.55564,,Pm-3m
JVASP-28556,Te4Mo3S2,FAILED_JVASP-28556.cif,0.0,0.09,mBJ,0.09,-0.40863,,R3m
JVASP-25311,P,FAILED_JVASP-25311.cif,0.0,0.0,mBJ,0.0,0.91233,,Fm-3m
JVASP-38840,PaAgO3,FAILED_JVASP-38840.cif,0.952,3.32,mBJ,2.368,-2.58434,,Pm-3m
JVASP-25399,Hg,FAILED_JVASP-25399.cif,0.0,0.0,mBJ,0.0,0.24269,,Im-3m
JVASP-16328,SmPPt,FAILED_JVASP-16328.cif,0.0,0.0,mBJ,0.0,-1.36686,,P-6m2
JVASP-36972,RbSnCl3,FAILED_JVASP-36972.cif,2.628,3.381,mBJ,0.753,-1.48912,,R3c
JVASP-37304,SrGaGeH,FAILED_JVASP-37304.cif,0.442,0.969,mBJ,0.527,-0.54347,,P3m1
JVASP-39346,PdN,FAILED_JVASP-39346.cif,0.0,0.0,mBJ,0.0,0.973,,F-43m
JVASP-20493,TaO,FAILED_JVASP-20493.cif,0.0,0.0,mBJ,0.0,-1.08271,,Fm-3m
JVASP-39082,SmAs3,FAILED_JVASP-39082.cif,0.0,0.0,mBJ,0.0,-0.54841,,I4/mmm
JVASP-37523,TbAg3,FAILED_JVASP-37523.cif,0.0,0.0,mBJ,0.0,-0.25721,,I4/mmm
JVASP-19983,Fe3N,FAILED_JVASP-19983.cif,0.0,0.0,mBJ,0.0,-0.14012,,P6_322
JVASP-36764,CuHgO2,FAILED_JVASP-36764.cif,0.0,0.0,mBJ,0.0,-0.42947,,C2/m
JVASP-37015,K2O,FAILED_JVASP-37015.cif,1.991,5.259,mBJ,3.268,-1.25751,,Immm
JVASP-54697,SmH3O3,FAILED_JVASP-54697.cif,3.757,6.126,mBJ,2.369,-2.0294,,P6_3/m
JVASP-16376,AlPt,FAILED_JVASP-16376.cif,0.0,0.0,mBJ,0.0,-0.92888,,Pm-3m
JVASP-19594,TaRh3,FAILED_JVASP-19594.cif,0.0,0.0,mBJ,0.0,-0.60673,,Pm-3m
JVASP-36917,BaZrSe3,FAILED_JVASP-36917.cif,0.303,0.371,mBJ,0.068,-1.66825,,P1
JVASP-19607,UIr3,FAILED_JVASP-19607.cif,0.0,0.0,mBJ,0.0,-0.69649,,Pm-3m
JVASP-39487,ReTe,FAILED_JVASP-39487.cif,0.0,0.0,mBJ,0.0,0.84152,,P6_3mc
JVASP-38737,Pm5Mg,FAILED_JVASP-38737.cif,0.0,0.0,mBJ,0.0,0.01819,,Amm2
JVASP-54698,Mn2HO4,FAILED_JVASP-54698.cif,0.0,0.0,mBJ,0.0,-1.61927,,Pmc2_1
JVASP-37666,RbTmO3,FAILED_JVASP-37666.cif,0.0,0.0,mBJ,0.0,-2.16642,,Pm-3m
JVASP-17314,CrAs2,FAILED_JVASP-17314.cif,0.0,0.0,mBJ,0.0,-0.07604,,C2/m
JVASP-15889,SbIr,FAILED_JVASP-15889.cif,0.0,0.0,mBJ,0.0,-0.15551,,P6_3/mmc
JVASP-37234,Sm2AlCd,FAILED_JVASP-37234.cif,0.0,0.0,mBJ,0.0,-0.37756,,Fm-3m
JVASP-17404,SnSb,FAILED_JVASP-17404.cif,0.0,0.0,mBJ,0.0,0.20658,,F-43m
JVASP-25341,Ag,FAILED_JVASP-25341.cif,0.0,0.0,mBJ,0.0,0.0017,,P6_3/mmc
JVASP-19703,Ti3Sb,FAILED_JVASP-19703.cif,0.0,0.0,mBJ,0.0,-0.3516,,Pm-3n
JVASP-38928,MgTa,FAILED_JVASP-38928.cif,0.0,0.0,mBJ,0.0,0.30425,,Pmma
JVASP-26180,Mo2As3,FAILED_JVASP-26180.cif,0.0,0.0,mBJ,0.0,-0.24208,,C2/m
JVASP-40602,ScTaRu2,FAILED_JVASP-40602.cif,0.0,0.0,mBJ,0.0,-0.64533,,Fm-3m
JVASP-39639,U3C,FAILED_JVASP-39639.cif,0.0,0.0,mBJ,0.0,0.42621,,Pm-3m
JVASP-39085,SmBr,FAILED_JVASP-39085.cif,0.0,0.0,mBJ,0.0,-1.24544,,P-6m2
JVASP-16618,ScZn,FAILED_JVASP-16618.cif,0.0,0.0,mBJ,0.0,-0.41191,,Pm-3m
JVASP-37567,YbRbO3,FAILED_JVASP-37567.cif,0.0,0.0,mBJ,0.0,-1.43815,,Pm-3m
JVASP-37016,KO2,FAILED_JVASP-37016.cif,0.0,0.0,mBJ,0.0,-0.94335,,Pa-3
JVASP-37305,Sm3Mg,FAILED_JVASP-37305.cif,0.0,0.0,mBJ,0.0,0.00129,,I4/mmm
JVASP-17198,ScCuSn,FAILED_JVASP-17198.cif,0.0,0.0,mBJ,0.0,-0.5617,,P6_3mc
JVASP-38738,Pm2Mg,FAILED_JVASP-38738.cif,0.0,0.0,mBJ,0.0,-0.05207,,I4/mmm
JVASP-16619,SmTl,FAILED_JVASP-16619.cif,0.0,0.0,mBJ,0.0,-0.39589,,Pm-3m
JVASP-39349,Pa2SbTe,FAILED_JVASP-39349.cif,0.0,0.0,mBJ,0.0,-0.54336,,Fm-3m
JVASP-16905,PrGe3Rh,FAILED_JVASP-16905.cif,0.0,0.0,mBJ,0.0,-0.68764,,I4mm
JVASP-19786,Mn3Sb,FAILED_JVASP-19786.cif,0.0,0.0,mBJ,0.0,0.19872,,Pm-3m
JVASP-38394,Pr3Cu,FAILED_JVASP-38394.cif,0.0,0.0,mBJ,0.0,0.11543,,I4/mmm
JVASP-36973,KGeBr3,FAILED_JVASP-36973.cif,2.913,3.948,mBJ,1.035,-1.11985,,P2_1/m
JVASP-16497,TaCo3,FAILED_JVASP-16497.cif,0.0,0.0,mBJ,0.0,-0.26977,,Pm-3m
JVASP-40102,YbMoClO4,FAILED_JVASP-40102.cif,2.318,3.756,mBJ,1.438,-2.36899,,C2/m
JVASP-36765,CuAgO2,FAILED_JVASP-36765.cif,0.0,0.0,mBJ,0.0,-0.49964,,Pmmm
JVASP-37615,Ti3Nb,FAILED_JVASP-37615.cif,0.0,0.0,mBJ,0.0,0.08109,,I4/mmm
JVASP-19738,CeTe,FAILED_JVASP-19738.cif,0.0,0.0,mBJ,0.0,-1.39666,,Fm-3m
JVASP-16458,BePd,FAILED_JVASP-16458.cif,0.0,0.0,mBJ,0.0,-0.56028,,Pm-3m
JVASP-23796,LuSiIr,FAILED_JVASP-23796.cif,0.0,0.0,mBJ,0.0,-1.0958,,Pnma
JVASP-37235,SmDyRu2,FAILED_JVASP-37235.cif,0.0,0.0,mBJ,0.0,-0.30141,,Fm-3m
JVASP-996,Sc,FAILED_JVASP-996.cif,0.0,0.0,mBJ,0.0,-0.0,,P6_3/mmc
JVASP-40548,RbUAuSe3,FAILED_JVASP-40548.cif,0.0,0.0,mBJ,0.0,-1.04845,,Cmcm
JVASP-40603,DyAgHg2,FAILED_JVASP-40603.cif,0.0,0.0,mBJ,0.0,-0.23799,,Fm-3m
JVASP-37017,KO,FAILED_JVASP-37017.cif,2.305,4.241,mBJ,1.936,-1.24833,,P-62m
JVASP-37525,YbErZn2,FAILED_JVASP-37525.cif,0.0,0.0,mBJ,0.0,-0.40347,,Fm-3m
JVASP-16860,Cu2HgGeSe4,FAILED_JVASP-16860.cif,0.0,0.235,mBJ,0.235,-0.19031,,I-42m
JVASP-16580,Ni3Mo,FAILED_JVASP-16580.cif,0.0,0.0,mBJ,0.0,-0.11495,,Pmmn
JVASP-36918,BaHfS3,FAILED_JVASP-36918.cif,0.736,1.244,mBJ,0.508,-1.99359,,Pm-3m
JVASP-28692,Te4Mo3WS4,FAILED_JVASP-28692.cif,0.095,0.0,mBJ,-0.095,-0.47942,,P3m1
JVASP-37393,Sm3Tm,FAILED_JVASP-37393.cif,0.0,0.0,mBJ,0.0,0.01062,,Pm-3m
JVASP-38843,ZrInPd2,FAILED_JVASP-38843.cif,0.0,0.0,mBJ,0.0,-0.6919,,Fm-3m
JVASP-879,F,FAILED_JVASP-879.cif,0.0,0.0,mBJ,0.0,0.64034,,Pm-3n
JVASP-898,In,FAILED_JVASP-898.cif,0.0,0.0,mBJ,0.0,0.0,,I4/mmm
JVASP-56505,AgTe3I,FAILED_JVASP-56505.cif,0.879,1.531,mBJ,0.652,-0.06997,,Pmna
JVASP-38460,NaLiO3,FAILED_JVASP-38460.cif,0.0,0.0,mBJ,0.0,-0.5208,,Pm-3m
JVASP-16297,Ba3Al2Ge2,FAILED_JVASP-16297.cif,0.0,0.0,mBJ,0.0,-0.57477,,Immm
JVASP-16378,Al3Pt2,FAILED_JVASP-16378.cif,0.0,0.0,mBJ,0.0,-1.02151,,P-3m1
JVASP-36805,AgPbO2,FAILED_JVASP-36805.cif,0.202,0.522,mBJ,0.32,-0.73508,,P2/m
JVASP-16539,Tb,FAILED_JVASP-16539.cif,0.0,0.0,mBJ,0.0,0.14641,,Im-3m
JVASP-37616,UCr3,FAILED_JVASP-37616.cif,0.0,0.0,mBJ,0.0,0.33159,,Fm-3m
JVASP-16459,BeRh,FAILED_JVASP-16459.cif,0.0,0.0,mBJ,0.0,-0.59911,,Pm-3m
JVASP-49923,SmTlO3,FAILED_JVASP-49923.cif,0.901,1.857,mBJ,0.956,-2.17124,,Pnma
JVASP-40432,K2BaCdSb2,FAILED_JVASP-40432.cif,0.21,0.93,mBJ,0.72,-0.71318,,Pmc2_1
JVASP-38395,BeF2,FAILED_JVASP-38395.cif,7.04,11.127,mBJ,4.087,-2.96041,,Cmmm
JVASP-19778,TbS,FAILED_JVASP-19778.cif,0.0,1.727,mBJ,1.727,-2.15731,,Fm-3m
JVASP-19944,PuN,FAILED_JVASP-19944.cif,0.0,0.0,mBJ,0.0,-1.6583,,Fm-3m
JVASP-16540,UTe,FAILED_JVASP-16540.cif,0.0,0.0,mBJ,0.0,-0.42655,,Pm-3m
JVASP-36919,MgAgF3,FAILED_JVASP-36919.cif,2.121,4.882,mBJ,2.761,-2.67729,,Pm-3m
JVASP-54699,TbH3O3,FAILED_JVASP-54699.cif,3.788,6.13,mBJ,2.342,-2.05211,,P6_3/m
JVASP-16246,LuSi2Ru2,FAILED_JVASP-16246.cif,0.0,0.0,mBJ,0.0,-0.82071,,I4/mmm
JVASP-38814,NdB2HF10,FAILED_JVASP-38814.cif,7.939,9.218,mBJ,1.279,-3.13054,,P2_1/m
JVASP-28886,TeW2Se2S,FAILED_JVASP-28886.cif,0.311,0.479,mBJ,0.168,-0.44154,,P3m1
JVASP-49924,Ti3N2O3,FAILED_JVASP-49924.cif,1.562,1.903,mBJ,0.341,-2.52297,,Cm
JVASP-19985,HgTe,FAILED_JVASP-19985.cif,0.0,0.0,mBJ,0.0,0.12213,,Fm-3m
JVASP-40549,DyMgRh2,FAILED_JVASP-40549.cif,0.0,0.0,mBJ,0.0,-0.75892,,Fm-3m
JVASP-38564,Nd3Al,FAILED_JVASP-38564.cif,0.0,0.0,mBJ,0.0,-0.20366,,Pm-3m
JVASP-36766,AgAuO2,FAILED_JVASP-36766.cif,0.0,0.0,mBJ,0.0,-0.20089,,I4_122
JVASP-40604,Sm2IrRh,FAILED_JVASP-40604.cif,0.0,0.0,mBJ,0.0,-0.79576,,Fm-3m
JVASP-19739,TiHg,FAILED_JVASP-19739.cif,0.0,0.0,mBJ,0.0,0.11624,,P4/mmm
JVASP-37238,Sc2ZnCu,FAILED_JVASP-37238.cif,0.0,0.0,mBJ,0.0,-0.35566,,Fm-3m
JVASP-49926,NaTmO2,FAILED_JVASP-49926.cif,4.537,6.513,mBJ,1.976,-3.11177,,C2/c
JVASP-25315,I,FAILED_JVASP-25315.cif,0.0,0.0,mBJ,0.0,0.36286,,Im-3m
JVASP-37054,Ti2AlV,FAILED_JVASP-37054.cif,0.0,0.0,mBJ,0.0,-0.09099,,F-43m
JVASP-16499,ScGaCu2,FAILED_JVASP-16499.cif,0.0,0.0,mBJ,0.0,-0.39444,,Fm-3m
JVASP-16401,PaAs2,FAILED_JVASP-16401.cif,0.0,0.0,mBJ,0.0,-0.95299,,P4/nmm
JVASP-38462,NaLi2Pb,FAILED_JVASP-38462.cif,0.0,0.0,mBJ,0.0,-0.28862,,Fm-3m
JVASP-12766,PaBr4,FAILED_JVASP-12766.cif,0.0,0.0,mBJ,0.0,-1.50971,,I4_1/amd
JVASP-49927,Bi2SeO6,FAILED_JVASP-49927.cif,2.302,3.712,mBJ,1.41,-1.09813,,Cc
JVASP-2745,CaPtF6,FAILED_JVASP-2745.cif,2.696,2.783,mBJ,0.087,-2.47183,,R-3
JVASP-9602,NaSbO3,FAILED_JVASP-9602.cif,2.763,4.177,mBJ,1.414,-1.75363,,R-3
JVASP-21249,MgGeO3,FAILED_JVASP-21249.cif,2.628,4.531,mBJ,1.903,-2.32762,,C2/c
JVASP-10098,Cd2B2O5,FAILED_JVASP-10098.cif,2.69,4.733,mBJ,2.043,-1.99276,,P-1
JVASP-9874,Ca2AlSnO5,FAILED_JVASP-9874.cif,2.238,3.579,mBJ,1.341,-2.7455,,P1
JVASP-9195,CaCoO2,FAILED_JVASP-9195.cif,0.0,0.0,mBJ,0.0,-1.91915,,P1
JVASP-12846,K2B2Se7,FAILED_JVASP-12846.cif,1.633,2.664,mBJ,1.031,-0.52661,,C2/c
JVASP-12792,Rb2B2Se7,FAILED_JVASP-12792.cif,1.733,2.72,mBJ,0.987,-0.53304,,C2/c
JVASP-13040,Na4SnS4,FAILED_JVASP-13040.cif,2.053,3.652,mBJ,1.599,-1.07907,,P-42_1c
JVASP-9234,V2ZnO6,FAILED_JVASP-9234.cif,1.678,1.992,mBJ,0.314,-2.18345,,P1
JVASP-30383,VOF3,FAILED_JVASP-30383.cif,1.56,1.904,mBJ,0.344,-2.67207,,Cmcm
JVASP-54700,TbH3O3,FAILED_JVASP-54700.cif,3.788,6.13,mBJ,2.342,-2.05213,,P6_3/m
JVASP-12742,AuClO,FAILED_JVASP-12742.cif,1.099,1.475,mBJ,0.376,-0.2314,,R-3
JVASP-52249,YbTiO3,FAILED_JVASP-52249.cif,3.558,4.069,mBJ,0.511,-3.53164,,R-3
JVASP-53100,Na3AlF6,FAILED_JVASP-53100.cif,7.056,11.361,mBJ,4.305,-3.31822,,R-3
JVASP-30290,Mn2F7,FAILED_JVASP-30290.cif,0.0,0.002,mBJ,0.002,-2.05748,,C2/c
JVASP-29965,NdPb4F11,FAILED_JVASP-29965.cif,4.622,5.741,mBJ,1.119,-2.92918,,R3m