material_id,formula,cif_path,pbe_bandgap,hse_bandgap,gap_type,correction,formation_energy,total_energy,spacegroup
JVASP-10919,CaCr2F10,FAILED_JVASP-10919.cif,0.007,0.0,mBJ,-0.007,-2.88073,,C2
JVASP-36144,GaBN2,FAILED_JVASP-36144.cif,3.353,4.473,mBJ,1.12,-0.60881,,P-4m2
JVASP-10708,RbC,FAILED_JVASP-10708.cif,3.713,5.265,mBJ,1.552,0.13847,,Pnma
JVASP-36370,RbSb,FAILED_JVASP-36370.cif,0.0,0.0,mBJ,0.0,0.48628,,F-43m
JVASP-54884,MgB2H8,FAILED_JVASP-54884.cif,5.928,8.351,mBJ,2.423,-0.22931,,Pmc2_1
JVASP-57246,Na3Co2SbO6,FAILED_JVASP-57246.cif,0.0,0.0,mBJ,0.0,-1.48349,,C2/m
JVASP-36186,BeSiP2,FAILED_JVASP-36186.cif,0.0,0.0,mBJ,0.0,0.65122,,Fm-3m
JVASP-10368,ZnBi4O8,FAILED_JVASP-10368.cif,0.0,0.0,mBJ,0.0,-0.98738,,R-3m
JVASP-36040,ErN,FAILED_JVASP-36040.cif,0.0,0.0,mBJ,0.0,-1.06281,,Pm-3m
JVASP-81103,CdPdAu2,FAILED_JVASP-81103.cif,0.0,0.0,mBJ,0.0,-0.03188,,Immm
JVASP-9974,Ba2YSbO6,FAILED_JVASP-9974.cif,3.864,4.811,mBJ,0.947,-2.9162,,Fm-3m
JVASP-4243,TiI3,FAILED_JVASP-4243.cif,0.077,0.044,mBJ,-0.033,-0.81856,,Pmmn
JVASP-59619,Al8Cr5,FAILED_JVASP-59619.cif,0.0,0.0,mBJ,0.0,-0.04964,,R3m
JVASP-36492,Sr3BiP,FAILED_JVASP-36492.cif,0.042,0.55,mBJ,0.508,-1.00442,,Pm-3m
JVASP-81829,LiMnIr2,FAILED_JVASP-81829.cif,0.0,0.0,mBJ,0.0,0.47706,,Immm
JVASP-10969,KThCuS3,FAILED_JVASP-10969.cif,2.026,2.385,mBJ,0.359,-1.60188,,Cmcm
JVASP-9975,K2CaC2O6,FAILED_JVASP-9975.cif,4.555,6.518,mBJ,1.963,-2.16018,,R-3m
JVASP-29795,AlH3O3,FAILED_JVASP-29795.cif,5.522,7.401,mBJ,1.879,-1.83208,,P-1
JVASP-36451,Sr3AsP,FAILED_JVASP-36451.cif,0.011,0.667,mBJ,0.656,-0.66234,,Pm-3m
JVASP-81501,FeAgS2,FAILED_JVASP-81501.cif,0.0,0.0,mBJ,0.0,-0.28701,,R3m
JVASP-1121,SrSe,FAILED_JVASP-1121.cif,2.24,3.124,mBJ,0.884,-2.20404,,Fm-3m
JVASP-36407,SrO,FAILED_JVASP-36407.cif,2.778,3.886,mBJ,1.108,-2.64361,,Pm-3m
JVASP-81989,Li2CuPd,FAILED_JVASP-81989.cif,0.291,0.9,mBJ,0.609,1.27848,,Immm
JVASP-10307,CaCo2O4,FAILED_JVASP-10307.cif,0.0,0.0,mBJ,0.0,-1.69133,,C2/m
JVASP-57559,Pr3CuSnS7,FAILED_JVASP-57559.cif,1.765,2.337,mBJ,0.572,-1.58678,,P6_3
JVASP-10533,MgTa2O6,FAILED_JVASP-10533.cif,2.893,4.101,mBJ,1.208,-3.10344,,P4_2/mnm
JVASP-81991,SnS,FAILED_JVASP-81991.cif,0.613,1.564,mBJ,0.951,-0.44969,,Cmcm
JVASP-24633,Bi2SO2,FAILED_JVASP-24633.cif,0.935,1.728,mBJ,0.793,-1.11004,,Pnnm
JVASP-28474,Te2MoW2Se2S2,FAILED_JVASP-28474.cif,0.078,0.015,mBJ,-0.063,-0.43225,,Cm
JVASP-80497,MgZr3,FAILED_JVASP-80497.cif,0.0,0.0,mBJ,0.0,0.01649,,Pm-3m
JVASP-50865,Li2FeS2,FAILED_JVASP-50865.cif,0.0,0.0,mBJ,0.0,-0.9355,,P3m1
JVASP-11550,Ca2SnN2,FAILED_JVASP-11550.cif,0.834,1.445,mBJ,0.611,-0.74668,,C2
JVASP-36596,SnHgO3,FAILED_JVASP-36596.cif,0.0,0.0,mBJ,0.0,-0.84219,,Pm-3m
JVASP-9721,ErTaO4,FAILED_JVASP-9721.cif,4.065,5.304,mBJ,1.239,-3.52323,,C2/c
JVASP-49200,NaNb3O8,FAILED_JVASP-49200.cif,2.247,2.965,mBJ,0.718,-2.69051,,Ibam
JVASP-35735,CoSnRh2,FAILED_JVASP-35735.cif,0.0,0.0,mBJ,0.0,-0.16468,,I4/mmm
JVASP-50442,K2Sr2O3,FAILED_JVASP-50442.cif,2.078,4.693,mBJ,2.615,-2.16409,,P2_1/c
JVASP-10970,SbS2NF6,FAILED_JVASP-10970.cif,2.539,2.785,mBJ,0.246,-1.57802,,C2/m
JVASP-10369,CaBi4O8,FAILED_JVASP-10369.cif,0.0,0.0,mBJ,0.0,-1.31602,,R-3m
JVASP-35690,CuPd,FAILED_JVASP-35690.cif,0.0,0.0,mBJ,0.0,-0.12012,,Pm-3m
JVASP-81992,BrCl,FAILED_JVASP-81992.cif,1.637,2.924,mBJ,1.287,-0.03564,,Cmcm
JVASP-34348,HoMo6S8,FAILED_JVASP-34348.cif,0.0,0.0,mBJ,0.0,-0.99914,,R-3
JVASP-36145,FeCo3,FAILED_JVASP-36145.cif,0.0,0.0,mBJ,0.0,0.02198,,Pm-3m
JVASP-49201,NaTa3O8,FAILED_JVASP-49201.cif,2.734,4.259,mBJ,1.525,-2.97472,,Ibam
JVASP-85269,Rb2CuBr2Cl2,FAILED_JVASP-85269.cif,0.0,0.0,mBJ,0.0,-1.34784,,Cmce
JVASP-52139,Co5SbO8,FAILED_JVASP-52139.cif,0.0,0.0,mBJ,0.0,-1.08835,,R-3m
JVASP-57630,Rb2CrF6,FAILED_JVASP-57630.cif,0.0,0.0,mBJ,0.0,-2.89814,,Fm-3m
JVASP-81505,InCuS2,FAILED_JVASP-81505.cif,0.057,0.625,mBJ,0.568,-0.4685,,R3m
JVASP-12074,TiClO,FAILED_JVASP-12074.cif,0.0,0.0,mBJ,0.0,-2.46178,,Pmmn
JVASP-9976,BaMgC2O6,FAILED_JVASP-9976.cif,4.242,6.225,mBJ,1.983,-2.28951,,R-3m
JVASP-36284,LaSe,FAILED_JVASP-36284.cif,0.0,0.962,mBJ,0.962,-1.84973,,Pm-3m
JVASP-10666,CaB2C2,FAILED_JVASP-10666.cif,0.525,1.039,mBJ,0.514,-0.44584,,I4/mcm
JVASP-85270,CaCl2,FAILED_JVASP-85270.cif,5.54,6.968,mBJ,1.428,-2.52987,,Pbcn
JVASP-49202,TiCdO3,FAILED_JVASP-49202.cif,2.142,2.538,mBJ,0.396,-2.43438,,Pnma
JVASP-36324,MoC,FAILED_JVASP-36324.cif,0.0,0.0,mBJ,0.0,0.40452,,F-43m
JVASP-49573,Y2Ti2O7,FAILED_JVASP-49573.cif,2.757,3.115,mBJ,0.358,-3.59708,,Fd-3m
JVASP-11433,Dy2CdS4,FAILED_JVASP-11433.cif,1.065,2.173,mBJ,1.108,-1.78649,,Fd-3m
JVASP-49203,Sr2CaUO6,FAILED_JVASP-49203.cif,2.32,2.552,mBJ,0.232,-3.42169,,P2_1/c
JVASP-36408,SnC,FAILED_JVASP-36408.cif,0.748,1.434,mBJ,0.686,0.7856,,F-43m
JVASP-36045,WS,FAILED_JVASP-36045.cif,0.0,0.0,mBJ,0.0,-0.52019,,P6_3mc
JVASP-36187,BrCl,FAILED_JVASP-36187.cif,1.637,2.898,mBJ,1.261,-0.03561,,Cmcm
JVASP-50444,Tm2TeO6,FAILED_JVASP-50444.cif,2.641,3.874,mBJ,1.233,-2.7162,,P4_2/mnm
JVASP-49205,ZnP4,FAILED_JVASP-49205.cif,0.987,1.4,mBJ,0.413,-0.11885,,P4_12_12
JVASP-34350,RbFeF3,FAILED_JVASP-34350.cif,0.0,0.0,mBJ,0.0,-2.46766,,Pm-3m
JVASP-38010,NaAgC2O4,FAILED_JVASP-38010.cif,1.672,2.496,mBJ,0.824,-1.20318,,P-1
JVASP-36669,CaB2H2,FAILED_JVASP-36669.cif,0.052,0.383,mBJ,0.331,-0.27581,,P-3m1
JVASP-22643,SiC,FAILED_JVASP-22643.cif,2.067,2.849,mBJ,0.782,-0.24287,,P3m1
JVASP-36372,RhC,FAILED_JVASP-36372.cif,0.0,0.0,mBJ,0.0,1.03164,,Fm-3m
JVASP-29566,HgI2,FAILED_JVASP-29566.cif,1.107,2.101,mBJ,0.994,-0.1533,,P4_2/nmc
JVASP-10308,ZnCo2O4,FAILED_JVASP-10308.cif,0.006,0.0,mBJ,-0.006,-1.16607,,C2/m
JVASP-36325,HfN2,FAILED_JVASP-36325.cif,0.0,0.758,mBJ,0.758,-0.87346,,P-6m2
JVASP-35691,Sr2SO,FAILED_JVASP-35691.cif,2.258,2.823,mBJ,0.565,-2.45258,,P4/mmm
JVASP-36751,LaAuO2,FAILED_JVASP-36751.cif,2.56,3.645,mBJ,1.085,-2.37233,,R-3m
JVASP-30583,MnO2,FAILED_JVASP-30583.cif,0.0,0.0,mBJ,0.0,-1.40157,,R-3m
JVASP-34355,Ho3CuSnS7,FAILED_JVASP-34355.cif,1.452,2.06,mBJ,0.608,-1.54879,,P6_3
JVASP-57843,Y2O3,FAILED_JVASP-57843.cif,4.095,5.25,mBJ,1.155,-3.83301,,C2/m
JVASP-36636,SrGeO3,FAILED_JVASP-36636.cif,0.0,1.94,mBJ,1.94,-2.40905,,Pm-3m
JVASP-34357,TbTaO4,FAILED_JVASP-34357.cif,4.064,5.297,mBJ,1.233,-3.5071,,C2/c
JVASP-36285,IrN,FAILED_JVASP-36285.cif,0.0,0.0,mBJ,0.0,1.59218,,Pm-3m
JVASP-50445,Li4ZrO4,FAILED_JVASP-50445.cif,4.732,5.622,mBJ,0.89,-2.62633,,Cmcm
JVASP-12438,CdIn2Se4,FAILED_JVASP-12438.cif,0.029,1.261,mBJ,1.232,-0.5319,,Fd-3m
JVASP-4183,BeCl2,FAILED_JVASP-4183.cif,6.48,8.395,mBJ,1.915,-1.49244,,Ibam
JVASP-36493,Ba3BiP,FAILED_JVASP-36493.cif,0.098,0.703,mBJ,0.605,-0.91284,,Pm-3m
JVASP-36452,Ba3PN,FAILED_JVASP-36452.cif,0.0,0.522,mBJ,0.522,-0.73869,,Pm-3m
JVASP-36409,SnC,FAILED_JVASP-36409.cif,0.0,0.0,mBJ,0.0,1.26929,,Fm-3m
JVASP-9225,MgSb2O6,FAILED_JVASP-9225.cif,1.532,2.194,mBJ,0.662,-1.76142,,Pmn2_1
JVASP-34358,RbCuF3,FAILED_JVASP-34358.cif,0.0,0.0,mBJ,0.0,-2.2552,,Pm-3m
JVASP-9978,KCSN,FAILED_JVASP-9978.cif,4.093,5.11,mBJ,1.017,-0.53612,,Pbcm
JVASP-36188,BaO,FAILED_JVASP-36188.cif,2.446,3.594,mBJ,1.148,-2.72267,,P6_3/mmc
JVASP-56253,Nb3Sb2Te5,FAILED_JVASP-56253.cif,0.99,1.052,mBJ,0.062,-0.38512,,I-43m
JVASP-10316,SnGe2O6,FAILED_JVASP-10316.cif,2.089,3.923,mBJ,1.834,-1.67115,,C2/c
JVASP-36326,NaH,FAILED_JVASP-36326.cif,1.775,4.568,mBJ,2.793,-0.13847,,Pm-3m
JVASP-35775,MgNi,FAILED_JVASP-35775.cif,0.0,0.0,mBJ,0.0,-0.21125,,P4/mmm
JVASP-11213,Na4TiO4,FAILED_JVASP-11213.cif,3.558,5.453,mBJ,1.895,-2.31209,,P-1
JVASP-56928,Ba2Bi,FAILED_JVASP-56928.cif,0.0,0.0,mBJ,0.0,-0.85331,,I4/mmm
JVASP-50034,Na6MgO4,FAILED_JVASP-50034.cif,2.277,4.787,mBJ,2.51,-1.67701,,P4_2/nmc
JVASP-34365,Sm2Ta2Cl2O7,FAILED_JVASP-34365.cif,3.213,4.333,mBJ,1.12,-3.1967,,C2/m
JVASP-41211,Mg2PdRh,FAILED_JVASP-41211.cif,0.0,0.0,mBJ,0.0,-0.672,,Fm-3m
JVASP-58267,SiO2,FAILED_JVASP-58267.cif,5.818,6.692,mBJ,0.874,-2.73778,,Pbcn
JVASP-51436,TiZnO3,FAILED_JVASP-51436.cif,3.121,3.653,mBJ,0.532,-2.44481,,P-1
JVASP-13835,YN,FAILED_JVASP-13835.cif,0.782,1.668,mBJ,0.886,-1.84569,,P6_3/mmc
JVASP-57844,TlHCO2,FAILED_JVASP-57844.cif,3.404,4.794,mBJ,1.39,-0.92561,,Pnna
JVASP-22526,SrBrF,FAILED_JVASP-22526.cif,5.293,6.852,mBJ,1.559,-3.27318,,P4/nmm
JVASP-52141,SrCe2S4,FAILED_JVASP-52141.cif,0.0,0.0,mBJ,0.0,-2.22716,,I-42d
JVASP-35978,IrC,FAILED_JVASP-35978.cif,0.0,0.402,mBJ,0.402,0.52535,,F-43m
JVASP-57560,Ag2S,FAILED_JVASP-57560.cif,1.074,1.928,mBJ,0.854,-0.07356,,Cmcm
JVASP-28908,TeW2Se2S,FAILED_JVASP-28908.cif,0.439,0.51,mBJ,0.071,-0.44189,,P3m1
JVASP-82023,LiCu2Pd,FAILED_JVASP-82023.cif,0.105,0.085,mBJ,-0.02,1.80126,,Immm
JVASP-28777,Te4Mo3WS4,FAILED_JVASP-28777.cif,0.135,0.166,mBJ,0.031,-0.44606,,P3m1
JVASP-36147,FeNi3,FAILED_JVASP-36147.cif,0.0,0.0,mBJ,0.0,0.03159,,Fm-3m
JVASP-34480,KRb2NiF6,FAILED_JVASP-34480.cif,0.0,0.647,mBJ,0.647,-2.54818,,Fm-3m
JVASP-36373,CaC2,FAILED_JVASP-36373.cif,1.732,2.549,mBJ,0.817,-0.00017,,R-3m
JVASP-36670,Be3N2,FAILED_JVASP-36670.cif,4.629,5.454,mBJ,0.825,-1.05347,,P-3m1
JVASP-52144,Fe2CuO4,FAILED_JVASP-52144.cif,0.0,0.0,mBJ,0.0,-1.20765,,Imma
JVASP-4246,WCl3,FAILED_JVASP-4246.cif,0.0,0.0,mBJ,0.0,-0.81989,,R-3
JVASP-57779,MgSO4,FAILED_JVASP-57779.cif,6.113,8.363,mBJ,2.25,-2.06349,,Pnma
JVASP-34370,K3Sb2N2O6F7,FAILED_JVASP-34370.cif,3.032,4.628,mBJ,1.596,-1.84153,,C2/m
JVASP-34482,SrCl2O4,FAILED_JVASP-34482.cif,2.419,3.976,mBJ,1.557,-0.94823,,Ccce
JVASP-36327,NaN,FAILED_JVASP-36327.cif,0.0,0.0,mBJ,0.0,1.09317,,Fm-3m
JVASP-10924,MgMn2O5,FAILED_JVASP-10924.cif,0.0,0.0,mBJ,0.0,-1.88321,,Pmmn
JVASP-35980,KCoCl3,FAILED_JVASP-35980.cif,0.0,0.0,mBJ,0.0,-1.14463,,R-3c
JVASP-36286,LiCdAs,FAILED_JVASP-36286.cif,0.0,0.0,mBJ,0.0,-0.25538,,F-43m
JVASP-9960,CaMn2O4,FAILED_JVASP-9960.cif,0.0,0.0,mBJ,0.0,-2.24376,,Cmcm
JVASP-35738,CaZnSe2,FAILED_JVASP-35738.cif,1.572,2.878,mBJ,1.306,-1.20824,,P-4m2
JVASP-10569,Rb2GeSe3,FAILED_JVASP-10569.cif,1.351,2.356,mBJ,1.005,-0.92146,,C2/m
JVASP-9082,Ga2O3,FAILED_JVASP-9082.cif,2.694,4.478,mBJ,1.784,-1.98874,,R-3c
JVASP-11361,Tm2S3,FAILED_JVASP-11361.cif,2.583,3.415,mBJ,0.832,-2.22052,,R-3c
JVASP-36238,MgTe,FAILED_JVASP-36238.cif,0.607,1.41,mBJ,0.803,-0.89206,,Fm-3m
JVASP-43513,Li2FeF6,FAILED_JVASP-43513.cif,0.0,0.0,mBJ,0.0,-2.56487,,P4_2/mnm
JVASP-11362,KPt2Se3,FAILED_JVASP-11362.cif,1.055,1.437,mBJ,0.382,-0.63979,,R-3m
JVASP-36453,Sr3SbN,FAILED_JVASP-36453.cif,0.0,0.0,mBJ,0.0,0.51758,,Pm-3m
JVASP-30584,CoO2,FAILED_JVASP-30584.cif,0.0,0.0,mBJ,0.0,-0.97838,,R-3m
JVASP-36637,MgZrO3,FAILED_JVASP-36637.cif,1.003,3.439,mBJ,2.436,-2.72274,,Pm-3m
JVASP-13743,AlPO4,FAILED_JVASP-13743.cif,5.438,7.053,mBJ,1.615,-2.73876,,Cmcm
JVASP-57780,SrSi2,FAILED_JVASP-57780.cif,0.0,0.109,mBJ,0.109,-0.39677,,P4_332
JVASP-30372,CrCo2O6,FAILED_JVASP-30372.cif,0.137,0.15,mBJ,0.013,-1.27933,,Cmce
JVASP-10371,CaSn4O8,FAILED_JVASP-10371.cif,0.196,1.105,mBJ,0.909,-1.75668,,R-3m
JVASP-22527,SrCl2,FAILED_JVASP-22527.cif,5.498,7.626,mBJ,2.128,-2.62686,,Fm-3m
JVASP-81285,LiZn2Cu,FAILED_JVASP-81285.cif,1.311,1.557,mBJ,0.246,0.97083,,Immm
JVASP-10175,CdGe2O5,FAILED_JVASP-10175.cif,1.655,3.488,mBJ,1.833,-1.63015,,P-1
JVASP-30626,SbF4,FAILED_JVASP-30626.cif,2.438,3.145,mBJ,0.707,-2.22968,,C2
JVASP-50867,LuHO2,FAILED_JVASP-50867.cif,5.104,7.163,mBJ,2.059,-2.8637,,Pmn2_1
JVASP-57845,Na2ZnSi2O6,FAILED_JVASP-57845.cif,3.817,6.279,mBJ,2.462,-2.46097,,C2/c
JVASP-36598,HfHgO3,FAILED_JVASP-36598.cif,0.0,0.0,mBJ,0.0,-2.08725,,Pm-3m
JVASP-54995,HoFe2B2,FAILED_JVASP-54995.cif,0.0,0.0,mBJ,0.0,-0.49931,,I4/mmm
JVASP-36287,LuSb,FAILED_JVASP-36287.cif,0.0,0.0,mBJ,0.0,-0.68508,,Pm-3m
JVASP-29796,UH2O4,FAILED_JVASP-29796.cif,1.785,1.727,mBJ,-0.058,-2.20265,,C2
JVASP-30585,SbO2,FAILED_JVASP-30585.cif,0.0,0.0,mBJ,0.0,-1.12883,,Fm-3m
JVASP-35776,BaC2,FAILED_JVASP-35776.cif,1.466,2.657,mBJ,1.191,-0.02786,,R-3m
JVASP-35827,Ba2ClF3,FAILED_JVASP-35827.cif,5.876,7.934,mBJ,2.058,-3.71599,,P-3m1
JVASP-59620,Sr2PrO4,FAILED_JVASP-59620.cif,0.0,0.0,mBJ,0.0,-2.92805,,Pbam
JVASP-36239,ReN2,FAILED_JVASP-36239.cif,0.0,0.857,mBJ,0.857,0.28174,,P-6m2
JVASP-36410,BeB2,FAILED_JVASP-36410.cif,0.0,0.0,mBJ,0.0,0.10579,,P6/mmm
JVASP-36328,MnTe,FAILED_JVASP-36328.cif,0.0,0.0,mBJ,0.0,0.07737,,F-43m
JVASP-13836,Na2LiN,FAILED_JVASP-13836.cif,0.0,0.884,mBJ,0.884,-0.09356,,P6/mmm
JVASP-1142,DyScO3,FAILED_JVASP-1142.cif,4.461,5.377,mBJ,0.916,-3.8247,,Pnma
JVASP-49701,Al2BiS4,FAILED_JVASP-49701.cif,2.642,3.264,mBJ,0.622,-1.01267,,P4/nnc
JVASP-57695,BN,FAILED_JVASP-57695.cif,5.432,6.745,mBJ,1.313,-1.31808,,P6_3mc
JVASP-11341,CaCr2F12,FAILED_JVASP-11341.cif,0.0,0.0,mBJ,0.0,-2.67645,,P-1
JVASP-51015,KHO,FAILED_JVASP-51015.cif,4.147,6.816,mBJ,2.669,-1.44531,,P2_1
JVASP-10570,KSb2Se4,FAILED_JVASP-10570.cif,1.091,1.772,mBJ,0.681,-0.52624,,P-1
JVASP-9161,TeO2,FAILED_JVASP-9161.cif,3.041,4.638,mBJ,1.597,-1.11798,,P4_12_12
JVASP-35981,IrC,FAILED_JVASP-35981.cif,0.0,0.0,mBJ,0.0,1.40583,,Fm-3m
JVASP-54886,Ca3Ga2N4,FAILED_JVASP-54886.cif,2.253,3.53,mBJ,1.277,-0.93089,,C2/c
JVASP-10177,SbAsO4,FAILED_JVASP-10177.cif,3.247,4.58,mBJ,1.333,-1.32929,,P2_1/m
JVASP-24638,NbAlO4,FAILED_JVASP-24638.cif,3.37,3.969,mBJ,0.599,-2.97806,,C2/m
JVASP-35692,KInO2,FAILED_JVASP-35692.cif,2.353,4.063,mBJ,1.71,-1.77784,,R-3m
JVASP-30374,V3Fe3Te2O16,FAILED_JVASP-30374.cif,0.0,0.0,mBJ,0.0,-1.66816,,P1
JVASP-35739,CaGaSiH,FAILED_JVASP-35739.cif,0.415,0.865,mBJ,0.45,-0.42329,,P3m1
JVASP-57251,XeO3,FAILED_JVASP-57251.cif,1.662,2.162,mBJ,0.5,1.3955,,P2_12_12_1
JVASP-49703,Y3CuGeSe7,FAILED_JVASP-49703.cif,1.1,1.731,mBJ,0.631,-1.34397,,P6_3
JVASP-36148,FeNi3,FAILED_JVASP-36148.cif,0.0,0.0,mBJ,0.0,-0.06472,,I4/mmm
JVASP-34483,Ag2H3IO6,FAILED_JVASP-34483.cif,0.709,1.102,mBJ,0.393,-0.48673,,R-3
JVASP-36289,LiF,FAILED_JVASP-36289.cif,8.106,11.164,mBJ,3.058,-2.85443,,Pm-3m
JVASP-36377,ReC,FAILED_JVASP-36377.cif,0.0,0.0,mBJ,0.0,0.70119,,F-43m
JVASP-9986,Ba2HoRuO6,FAILED_JVASP-9986.cif,0.086,0.0,mBJ,-0.086,-2.71353,,Fm-3m
JVASP-10178,HfSO,FAILED_JVASP-10178.cif,2.87,3.949,mBJ,1.079,-2.7712,,P2_13
JVASP-4531,P4S5,FAILED_JVASP-4531.cif,2.227,3.009,mBJ,0.782,-0.17835,,P2_1/m
JVASP-36535,CrN2,FAILED_JVASP-36535.cif,0.0,0.0,mBJ,0.0,0.53845,,Fm-3m
JVASP-36638,SrSiO3,FAILED_JVASP-36638.cif,3.036,4.176,mBJ,1.14,-2.95436,,Pm-3m
JVASP-10976,ErCuS2,FAILED_JVASP-10976.cif,1.761,2.071,mBJ,0.31,-1.48782,,Pnma
JVASP-24643,AcCl3,FAILED_JVASP-24643.cif,5.127,6.188,mBJ,1.061,-2.60919,,P6_3/m
JVASP-34374,Mg2SiO4,FAILED_JVASP-34374.cif,5.017,6.905,mBJ,1.888,-2.98525,,P-3m1
JVASP-11037,MgCoO2,FAILED_JVASP-11037.cif,0.0,0.0,mBJ,0.0,-1.82011,,P2_1/m
JVASP-56047,LiI,FAILED_JVASP-56047.cif,4.558,5.252,mBJ,0.694,-1.28714,,P6_3/mmc
JVASP-1127,KTaO3,FAILED_JVASP-1127.cif,2.228,3.326,mBJ,1.098,-2.91791,,Pm-3m
JVASP-30523,Ti4ZnO9,FAILED_JVASP-30523.cif,2.441,2.916,mBJ,0.475,-2.83071,,P4/n
JVASP-36494,Ca3BiAs,FAILED_JVASP-36494.cif,0.0,0.151,mBJ,0.151,-0.34834,,Pm-3m
JVASP-29797,V2H3O5,FAILED_JVASP-29797.cif,0.0,0.0,mBJ,0.0,-1.83653,,Cm
JVASP-10610,MgCr4O8,FAILED_JVASP-10610.cif,0.0,0.003,mBJ,0.003,-2.15714,,R-3m
JVASP-56189,ZrCo2Si2,FAILED_JVASP-56189.cif,0.0,0.0,mBJ,0.0,-0.75328,,I4/mmm
JVASP-36671,Bi2O3,FAILED_JVASP-36671.cif,0.114,1.023,mBJ,0.909,-1.18412,,P-4m2
JVASP-9987,Ba2YTaO6,FAILED_JVASP-9987.cif,3.445,4.489,mBJ,1.044,-3.44561,,Fm-3m
JVASP-35777,NbN,FAILED_JVASP-35777.cif,0.0,0.0,mBJ,0.0,-0.77545,,F-43m
JVASP-36072,UCd2O5,FAILED_JVASP-36072.cif,2.095,2.206,mBJ,0.111,-2.23952,,C2/c
JVASP-27655,Zn2W3O8,FAILED_JVASP-27655.cif,0.647,1.565,mBJ,0.918,-1.92422,,P6_3mc
JVASP-10571,RbSb2Se4,FAILED_JVASP-10571.cif,1.142,1.786,mBJ,0.644,-0.53919,,P-1
JVASP-9988,Ba2ErRuO6,FAILED_JVASP-9988.cif,0.079,0.0,mBJ,-0.079,-2.72391,,Fm-3m
JVASP-56049,SrI2,FAILED_JVASP-56049.cif,3.781,4.706,mBJ,0.925,-1.78689,,Pnma
JVASP-35828,Ba2H3I,FAILED_JVASP-35828.cif,2.271,3.056,mBJ,0.785,-0.98137,,P-3m1
JVASP-9226,MgTa2O6,FAILED_JVASP-9226.cif,3.122,4.254,mBJ,1.132,-3.0301,,Pmn2_1
JVASP-22528,CaCl2,FAILED_JVASP-22528.cif,5.422,6.86,mBJ,1.438,-2.52779,,Pnnm
JVASP-1079,Mg2Ge,FAILED_JVASP-1079.cif,0.299,0.576,mBJ,0.277,-0.34663,,Fm-3m
JVASP-36454,Sr3SbP,FAILED_JVASP-36454.cif,0.0,0.28,mBJ,0.28,-0.35345,,Pm-3m
JVASP-34375,SiO2,FAILED_JVASP-34375.cif,4.903,7.609,mBJ,2.706,-2.68713,,P4_2/mcm
JVASP-36599,TiHgO3,FAILED_JVASP-36599.cif,0.0,0.347,mBJ,0.347,-1.84676,,Pm-3m
JVASP-30586,TiO2,FAILED_JVASP-30586.cif,2.355,2.671,mBJ,0.316,-3.08064,,R-3m
JVASP-35693,SrCdO2,FAILED_JVASP-35693.cif,0.245,2.216,mBJ,1.971,-2.07228,,P4/mmm
JVASP-28909,MoW3Se8,FAILED_JVASP-28909.cif,1.067,1.381,mBJ,0.314,-0.55631,,P3m1
JVASP-34484,SiO2,FAILED_JVASP-34484.cif,5.747,8.475,mBJ,2.728,-2.87898,,Fddd
JVASP-43519,HfO2,FAILED_JVASP-43519.cif,3.95,5.583,mBJ,1.633,-3.77072,,P4_2/mnm
JVASP-50450,ZrSeO,FAILED_JVASP-50450.cif,2.013,2.399,mBJ,0.386,-2.52827,,P2_13
JVASP-36379,CaB2,FAILED_JVASP-36379.cif,0.0,0.0,mBJ,0.0,-0.25351,,P6/mmm
JVASP-12000,FeBr3,FAILED_JVASP-12000.cif,0.0,0.0,mBJ,0.0,-0.38671,,R-3
JVASP-11435,GaSiMo4S8,FAILED_JVASP-11435.cif,0.0,0.41,mBJ,0.41,-0.48285,,F-43m
JVASP-9725,Sc2Si2O7,FAILED_JVASP-9725.cif,4.325,5.268,mBJ,0.943,-3.35819,,C2/m
JVASP-36243,RbCuO,FAILED_JVASP-36243.cif,0.0,0.606,mBJ,0.606,-0.16648,,F-43m
JVASP-35779,MnSn,FAILED_JVASP-35779.cif,0.0,0.0,mBJ,0.0,0.37958,,Fm-3m
JVASP-12645,MnSnO3,FAILED_JVASP-12645.cif,0.0,0.0,mBJ,0.0,-1.62159,,R-3
JVASP-36640,HfCdO3,FAILED_JVASP-36640.cif,0.0,1.709,mBJ,1.709,-2.45281,,Pm-3m
JVASP-30376,V2O5,FAILED_JVASP-30376.cif,2.407,2.823,mBJ,0.416,-2.36839,,Pnma
JVASP-34485,ZrCoF6,FAILED_JVASP-34485.cif,0.0,0.0,mBJ,0.0,-3.065,,Fm-3m
JVASP-40123,ErTaOs2,FAILED_JVASP-40123.cif,0.0,0.0,mBJ,0.0,-0.36969,,Fm-3m
JVASP-56190,CuI,FAILED_JVASP-56190.cif,1.297,2.171,mBJ,0.874,-0.14799,,P6_3mc
JVASP-11342,ZnNi2O4,FAILED_JVASP-11342.cif,0.0,0.0,mBJ,0.0,-1.13224,,Fd-3m
JVASP-57852,KNaSO4,FAILED_JVASP-57852.cif,5.506,8.813,mBJ,3.307,-1.95058,,P3m1
JVASP-29057,Te4MoW3Se2S2,FAILED_JVASP-29057.cif,0.212,0.402,mBJ,0.19,-0.33592,,P3m1
JVASP-72,WS2,FAILED_JVASP-72.cif,0.718,1.52,HSE,0.802,-0.89481,,P6_3/mmc
JVASP-36149,Fe3Ni,FAILED_JVASP-36149.cif,0.0,0.0,mBJ,0.0,0.06597,,I4/mmm
JVASP-36291,IrN,FAILED_JVASP-36291.cif,0.0,0.0,mBJ,0.0,1.42926,,P-6m2
JVASP-10180,LiSmO2,FAILED_JVASP-10180.cif,3.745,4.966,mBJ,1.221,-3.07874,,P2_1/c
JVASP-50035,ZrO2,FAILED_JVASP-50035.cif,4.139,4.638,mBJ,0.499,-3.67127,,Pnma
JVASP-9990,Ca5B3O9F,FAILED_JVASP-9990.cif,4.511,6.83,mBJ,2.319,-3.23282,,Cm
JVASP-35984,IrC,FAILED_JVASP-35984.cif,0.0,0.0,mBJ,0.0,1.22284,,P-6m2
JVASP-30378,HfSnO3,FAILED_JVASP-30378.cif,2.452,3.846,mBJ,1.394,-2.75823,,R-3
JVASP-11559,Mg2Sn3O8,FAILED_JVASP-11559.cif,2.399,4.09,mBJ,1.691,-2.08608,,C2/m
JVASP-36412,BaSi2,FAILED_JVASP-36412.cif,0.0,0.0,mBJ,0.0,0.03063,,I4/mmm
JVASP-34486,ZrCrF6,FAILED_JVASP-34486.cif,0.0,0.0,mBJ,0.0,-3.25578,,Fm-3m
JVASP-9527,VZnSF5,FAILED_JVASP-9527.cif,0.0,0.0,mBJ,0.0,-2.30257,,P-1
JVASP-11440,BaPr2ZnS5,FAILED_JVASP-11440.cif,1.247,1.958,mBJ,0.711,-1.95858,,I4/mcm
JVASP-10573,ZnCO3,FAILED_JVASP-10573.cif,3.87,5.937,mBJ,2.067,-1.51804,,R-3c
JVASP-9117,FeS2,FAILED_JVASP-9117.cif,0.433,0.47,mBJ,0.037,-0.62728,,Pa-3
JVASP-10181,GeO2,FAILED_JVASP-10181.cif,3.207,5.354,mBJ,2.147,-1.65848,,P4_12_12
JVASP-10325,CaTi2O5,FAILED_JVASP-10325.cif,2.772,3.36,mBJ,0.588,-3.24038,,Cmcm
JVASP-11344,AlSbO3,FAILED_JVASP-11344.cif,0.399,0.867,mBJ,0.468,-1.55501,,P6_3/mmc
JVASP-10182,MgIn2O4,FAILED_JVASP-10182.cif,2.073,3.839,mBJ,1.766,-2.05322,,Fd-3m
JVASP-11160,Hg2GeO4,FAILED_JVASP-11160.cif,1.094,2.288,mBJ,1.194,-0.87651,,Fddd
JVASP-9727,Ag2SO4,FAILED_JVASP-9727.cif,1.29,3.113,mBJ,1.823,-0.91061,,Fddd
JVASP-11609,ZnSb2O4,FAILED_JVASP-11609.cif,0.939,1.498,mBJ,0.559,-1.21952,,Imma
JVASP-34489,Sr2FeWO6,FAILED_JVASP-34489.cif,0.564,3.403,mBJ,2.839,-2.62702,,I4/m
JVASP-9991,NaCSN,FAILED_JVASP-9991.cif,4.134,5.196,mBJ,1.062,-0.44714,,Pnma
JVASP-9083,Sb2Ir,FAILED_JVASP-9083.cif,0.47,0.597,mBJ,0.127,-0.34302,,P2_1/c
JVASP-11441,BaNd2ZnS5,FAILED_JVASP-11441.cif,1.218,1.946,mBJ,0.728,-1.95817,,I4/mcm
JVASP-10184,Mg3As2,FAILED_JVASP-10184.cif,0.715,1.406,mBJ,0.691,-0.54083,,Pn-3m
JVASP-36672,Bi2O3,FAILED_JVASP-36672.cif,1.454,2.305,mBJ,0.851,-1.31307,,P-3m1
JVASP-9728,DyAsO4,FAILED_JVASP-9728.cif,3.838,5.439,mBJ,1.601,-2.52831,,I4_1/amd
JVASP-36380,RhC,FAILED_JVASP-36380.cif,0.0,0.718,mBJ,0.718,0.51578,,F-43m
JVASP-11610,TiZnBi2O6,FAILED_JVASP-11610.cif,1.689,2.587,mBJ,0.898,-1.94731,,P4mm