material_id,formula,cif_path,pbe_bandgap,hse_bandgap,gap_type,correction,formation_energy,total_energy,spacegroup
JVASP-36254,NaAgO,FAILED_JVASP-36254.cif,0.0,0.781,mBJ,0.781,-0.6618,,F-43m
JVASP-56088,MgH2,FAILED_JVASP-56088.cif,2.279,3.969,mBJ,1.69,-0.24279,,Pbca
JVASP-30538,MoO2,FAILED_JVASP-30538.cif,0.0,0.0,mBJ,0.0,-0.33751,,P6_3/mmc
JVASP-35704,KTiS2,FAILED_JVASP-35704.cif,0.0,1.24,mBJ,1.24,-1.51425,,R-3m
JVASP-36462,Ca3BiAs,FAILED_JVASP-36462.cif,0.062,0.609,mBJ,0.547,-0.98247,,Pm-3m
JVASP-57518,SrCaC2O6,FAILED_JVASP-57518.cif,4.927,6.665,mBJ,1.738,-2.41375,,Pmc2_1
JVASP-36202,AlBN2,FAILED_JVASP-36202.cif,3.307,4.477,mBJ,1.17,-1.14559,,P-4m2
JVASP-57579,MgF2,FAILED_JVASP-57579.cif,6.458,11.737,mBJ,5.279,-3.60231,,C2/m
JVASP-29801,TeH2O4,FAILED_JVASP-29801.cif,1.735,2.406,mBJ,0.671,-0.94224,,P2_1/c
JVASP-30217,GaH5N2F2,FAILED_JVASP-30217.cif,2.913,4.919,mBJ,2.006,-0.96351,,C2/m
JVASP-36650,MgSiN2,FAILED_JVASP-36650.cif,4.432,5.47,mBJ,1.038,-1.04313,,R-3m
JVASP-36156,DyAu,FAILED_JVASP-36156.cif,0.0,0.0,mBJ,0.0,-0.95412,,Cmcm
JVASP-36303,MgSnAs2,FAILED_JVASP-36303.cif,0.412,1.434,mBJ,1.022,-0.34243,,I-42d
JVASP-36615,ZnSiO3,FAILED_JVASP-36615.cif,0.0,2.86,mBJ,2.86,-1.86266,,Pm-3m
JVASP-36556,Cr3N2,FAILED_JVASP-36556.cif,0.0,0.0,mBJ,0.0,-0.40655,,P-3m1
JVASP-56199,DyAl2Ni,FAILED_JVASP-56199.cif,0.0,0.0,mBJ,0.0,-0.67227,,Cmcm
JVASP-41798,KNaSmTaO5,FAILED_JVASP-41798.cif,3.645,5.778,mBJ,2.133,-2.95742,,P4/nmm
JVASP-36255,NaCuO,FAILED_JVASP-36255.cif,0.0,0.0,mBJ,0.0,-0.6429,,F-43m
JVASP-36428,ZrC,FAILED_JVASP-36428.cif,0.545,1.102,mBJ,0.557,-0.34975,,F-43m
JVASP-35747,Ba2NCl,FAILED_JVASP-35747.cif,1.145,2.11,mBJ,0.965,-1.49108,,R-3m
JVASP-35655,Ho3AlN,FAILED_JVASP-35655.cif,0.0,0.0,mBJ,0.0,-1.02618,,Pm-3m
JVASP-30638,Mg2Sn3O8,FAILED_JVASP-30638.cif,2.399,4.078,mBJ,1.679,-2.08608,,C2/m
JVASP-30594,TiF4,FAILED_JVASP-30594.cif,4.857,5.273,mBJ,0.416,-3.43041,,P-1
JVASP-36203,AuN,FAILED_JVASP-36203.cif,0.0,0.0,mBJ,0.0,1.65162,,F-43m
JVASP-35793,PmN,FAILED_JVASP-35793.cif,0.0,0.79,mBJ,0.79,-1.64706,,Fm-3m
JVASP-30539,CoO2,FAILED_JVASP-30539.cif,0.0,0.0,mBJ,0.0,0.16414,,P6_3/mmc
JVASP-57039,KCO2,FAILED_JVASP-57039.cif,2.725,4.136,mBJ,1.411,-1.67694,,Pbam
JVASP-50455,Lu2TeO6,FAILED_JVASP-50455.cif,2.596,3.816,mBJ,1.22,-2.7378,,P4_2/mnm
JVASP-41803,BaSb2F12,FAILED_JVASP-41803.cif,4.605,6.231,mBJ,1.626,-2.742,,P-1
JVASP-56106,As4C3,FAILED_JVASP-56106.cif,0.0,0.0,mBJ,0.0,0.86859,,P-43m
JVASP-34999,MgAgSb,FAILED_JVASP-34999.cif,0.0,0.0,mBJ,0.0,-0.21169,,P4/nmm
JVASP-36501,Ba3BiN,FAILED_JVASP-36501.cif,0.0,0.0,mBJ,0.0,0.66287,,Pm-3m
JVASP-35705,HoFeC2,FAILED_JVASP-35705.cif,0.0,0.0,mBJ,0.0,-0.37484,,Amm2
JVASP-36256,MnFeTe,FAILED_JVASP-36256.cif,0.0,0.0,mBJ,0.0,0.08475,,F-43m
JVASP-22545,LiYSe2,FAILED_JVASP-22545.cif,1.625,2.15,mBJ,0.525,-1.79239,,I4_1/amd
JVASP-57788,AlPO4,FAILED_JVASP-57788.cif,5.953,8.317,mBJ,2.364,-2.77887,,P3_121
JVASP-36463,Ca3Sb2,FAILED_JVASP-36463.cif,0.222,0.748,mBJ,0.526,-0.66324,,Pm-3m
JVASP-36429,CrCo,FAILED_JVASP-36429.cif,0.0,0.0,mBJ,0.0,0.17975,,Pm-3m
JVASP-36654,VCo3,FAILED_JVASP-36654.cif,0.0,0.0,mBJ,0.0,-0.20331,,Pm-3m
JVASP-35890,HfN2,FAILED_JVASP-35890.cif,0.641,1.76,mBJ,1.119,-0.91709,,P6_3/mmc
JVASP-28582,MoSeS,FAILED_JVASP-28582.cif,0.593,0.541,mBJ,-0.052,-0.80335,,C2/m
JVASP-35794,CrNiSb,FAILED_JVASP-35794.cif,0.0,0.0,mBJ,0.0,0.02409,,F-43m
JVASP-35748,AlSb,FAILED_JVASP-35748.cif,1.058,1.501,mBJ,0.443,-0.23356,,P6_3mc
JVASP-57587,Na3FeF6,FAILED_JVASP-57587.cif,0.0,0.0,mBJ,0.0,-2.63316,,P2_1/c
JVASP-50923,Ba3Hf2O7,FAILED_JVASP-50923.cif,3.685,4.981,mBJ,1.296,-3.51322,,I4/mmm
JVASP-56324,Si2Ru,FAILED_JVASP-56324.cif,0.567,0.637,mBJ,0.07,-0.40506,,Cmce
JVASP-29874,AgSbS2,FAILED_JVASP-29874.cif,0.525,1.216,mBJ,0.691,-0.19167,,C2/m
JVASP-36617,CdSiO3,FAILED_JVASP-36617.cif,0.78,3.425,mBJ,2.645,-1.92858,,Pm-3m
JVASP-36304,MgSnP2,FAILED_JVASP-36304.cif,1.15,2.216,mBJ,1.066,-0.38086,,I-42d
JVASP-37580,SrDy2S4,FAILED_JVASP-37580.cif,1.786,2.609,mBJ,0.823,-2.31511,,Pnma
JVASP-36204,BP,FAILED_JVASP-36204.cif,1.377,1.844,mBJ,0.467,-0.43915,,P6_3mc
JVASP-56110,K3Bi,FAILED_JVASP-56110.cif,0.419,1.238,mBJ,0.819,-0.45999,,Fm-3m
JVASP-41804,LiLu2Os,FAILED_JVASP-41804.cif,0.0,0.0,mBJ,0.0,-0.40371,,Fm-3m
JVASP-22546,LiMgN,FAILED_JVASP-22546.cif,2.786,3.655,mBJ,0.869,-0.84026,,F-43m
JVASP-36258,MnCoTe,FAILED_JVASP-36258.cif,0.0,0.0,mBJ,0.0,-0.00927,,F-43m
JVASP-35268,Na2Zn3S4,FAILED_JVASP-35268.cif,2.202,4.049,mBJ,1.847,-0.92071,,Ibam
JVASP-28529,MoW2Se4S2,FAILED_JVASP-28529.cif,0.549,0.523,mBJ,-0.026,-0.67189,,R3m
JVASP-35832,Ca2H3Br,FAILED_JVASP-35832.cif,1.801,3.135,mBJ,1.334,-1.06216,,P-3m1
JVASP-35749,AlCo3,FAILED_JVASP-35749.cif,0.0,0.0,mBJ,0.0,-0.18561,,Pm-3m
JVASP-35656,HfBRh3,FAILED_JVASP-35656.cif,0.0,0.0,mBJ,0.0,-0.76159,,Pm-3m
JVASP-36157,CuI,FAILED_JVASP-36157.cif,0.942,1.857,mBJ,0.915,-0.09217,,Cmcm
JVASP-36464,Ca3P2,FAILED_JVASP-36464.cif,0.508,1.234,mBJ,0.726,-0.84849,,Pm-3m
JVASP-36619,CdSnO3,FAILED_JVASP-36619.cif,0.0,1.75,mBJ,1.75,-1.21701,,Pm-3m
JVASP-30597,BiF5,FAILED_JVASP-30597.cif,0.0,0.0,mBJ,0.0,-1.64951,,Immm
JVASP-36502,Ba3AsP,FAILED_JVASP-36502.cif,0.066,0.71,mBJ,0.644,-0.56362,,Pm-3m
JVASP-5713,Nb3TeI7,FAILED_JVASP-5713.cif,0.504,0.652,mBJ,0.148,-0.56447,,P6_3mc
JVASP-57040,BaZrP2O8,FAILED_JVASP-57040.cif,4.009,4.495,mBJ,0.486,-2.96657,,P-3m1
JVASP-29879,SnSe,FAILED_JVASP-29879.cif,0.387,1.219,mBJ,0.832,-0.36807,,Cmcm
JVASP-36433,CeSe2,FAILED_JVASP-36433.cif,0.0,0.0,mBJ,0.0,-1.53056,,I4/mmm
JVASP-42418,VO2F,FAILED_JVASP-42418.cif,0.895,1.167,mBJ,0.272,-2.48653,,P-1
JVASP-52645,TePb,FAILED_JVASP-52645.cif,0.231,0.569,mBJ,0.338,-0.37756,,P6_3mc
JVASP-47709,BaCO3,FAILED_JVASP-47709.cif,4.482,6.399,mBJ,1.917,-2.37091,,P2_1/m
JVASP-29802,TeH2O4,FAILED_JVASP-29802.cif,1.717,2.412,mBJ,0.695,-0.93508,,Pc
JVASP-14104,KInBr4,FAILED_JVASP-14104.cif,2.717,4.336,mBJ,1.619,-1.19442,,Pnna
JVASP-35658,KMgH3,FAILED_JVASP-35658.cif,0.0,0.332,mBJ,0.332,0.7041,,Pm-3m
JVASP-36655,VH,FAILED_JVASP-36655.cif,0.0,0.0,mBJ,0.0,0.10356,,Cmcm
JVASP-56327,YInAg2,FAILED_JVASP-56327.cif,0.0,0.0,mBJ,0.0,-0.4005,,Fm-3m
JVASP-28481,Te4Mo2WSe2,FAILED_JVASP-28481.cif,0.478,0.514,mBJ,0.036,-0.28598,,Amm2
JVASP-33918,Te7Mo6S5,FAILED_JVASP-33918.cif,0.761,0.922,mBJ,0.161,-0.51528,,Cm
JVASP-30641,Se2Cl2O5,FAILED_JVASP-30641.cif,0.0,0.0,mBJ,0.0,0.07381,,I4/mmm
JVASP-5716,NbTeCl9,FAILED_JVASP-5716.cif,1.989,2.498,mBJ,0.509,-0.95598,,P-1
JVASP-28781,Mo3WSe4S4,FAILED_JVASP-28781.cif,0.594,0.771,mBJ,0.177,-0.78665,,Cm
JVASP-42419,FeOF,FAILED_JVASP-42419.cif,0.0,0.0,mBJ,0.0,-1.68467,,Pm
JVASP-30642,BiO2,FAILED_JVASP-30642.cif,0.0,0.0,mBJ,0.0,-0.58654,,P6_3/mmc
JVASP-57041,Mg3P2O8,FAILED_JVASP-57041.cif,5.584,7.747,mBJ,2.163,-2.79682,,P2_1/c
JVASP-30643,BiF4,FAILED_JVASP-30643.cif,1.285,1.677,mBJ,0.392,-2.11516,,C2
JVASP-35356,UB2Rh2C,FAILED_JVASP-35356.cif,0.0,0.0,mBJ,0.0,-0.46712,,I4/mmm
JVASP-56447,Ti3Pd5,FAILED_JVASP-56447.cif,0.0,0.0,mBJ,0.0,-0.6201,,P4/mmm
JVASP-29880,BN,FAILED_JVASP-29880.cif,3.655,5.336,mBJ,1.681,-1.38199,,P6_3/mmc
JVASP-35750,ZrPd2,FAILED_JVASP-35750.cif,0.0,0.0,mBJ,0.0,-0.7928,,I4/mmm
JVASP-35711,GaSb,FAILED_JVASP-35711.cif,0.0,0.57,mBJ,0.57,-0.13331,,P6_3mc
JVASP-36465,Ca3SbN,FAILED_JVASP-36465.cif,0.473,0.987,mBJ,0.514,-1.27494,,Pm-3m
JVASP-35891,HfSb2,FAILED_JVASP-35891.cif,0.0,0.0,mBJ,0.0,-0.3278,,P4/nmm
JVASP-56205,VP,FAILED_JVASP-56205.cif,0.0,0.0,mBJ,0.0,-0.42854,,P6_3/mmc
JVASP-36205,TmTlTe2,FAILED_JVASP-36205.cif,0.711,1.179,mBJ,0.468,-1.05942,,R-3m
JVASP-36160,CrInCu2,FAILED_JVASP-36160.cif,0.0,0.0,mBJ,0.0,0.23027,,Fm-3m
JVASP-29803,CdH2O2,FAILED_JVASP-29803.cif,1.795,3.777,mBJ,1.982,-1.07797,,P-3m1
JVASP-57520,Ca2Al2SiO7,FAILED_JVASP-57520.cif,4.584,6.518,mBJ,1.934,-3.28003,,P-42_1m
JVASP-50106,HgO2,FAILED_JVASP-50106.cif,0.135,1.504,mBJ,1.369,0.0904,,C2/m
JVASP-50924,HfZrO4,FAILED_JVASP-50924.cif,3.712,4.318,mBJ,0.606,-3.70511,,P2_1/c
JVASP-47721,Li2Cu2F7,FAILED_JVASP-47721.cif,0.0,0.0,mBJ,0.0,-2.08764,,Cm
JVASP-36503,Ba3SbP,FAILED_JVASP-36503.cif,0.0,0.422,mBJ,0.422,-0.30757,,Pm-3m
JVASP-58423,KRb2ScF6,FAILED_JVASP-58423.cif,6.986,7.631,mBJ,0.645,-3.50367,,I4/m
JVASP-36466,Ba3BiN,FAILED_JVASP-36466.cif,0.0,0.26,mBJ,0.26,-0.87399,,Pm-3m
JVASP-36621,ZrZnO3,FAILED_JVASP-36621.cif,0.0,1.176,mBJ,1.176,-2.09574,,Pm-3m
JVASP-56951,BCl,FAILED_JVASP-56951.cif,3.064,4.032,mBJ,0.968,-0.3448,,P4_2/nmc
JVASP-35174,LiCaMgSiN3,FAILED_JVASP-35174.cif,3.081,4.038,mBJ,0.957,-1.19688,,C2/m
JVASP-56206,Ni4B3,FAILED_JVASP-56206.cif,0.0,0.0,mBJ,0.0,-0.2295,,C2/c
JVASP-36161,CrNi3,FAILED_JVASP-36161.cif,0.0,0.0,mBJ,0.0,-0.0068,,Pm-3m
JVASP-35082,Sr2H3I,FAILED_JVASP-35082.cif,2.346,3.265,mBJ,0.919,-0.97488,,P-3m1
JVASP-35713,FeH3,FAILED_JVASP-35713.cif,0.0,0.0,mBJ,0.0,0.3207,,Pm-3m
JVASP-35751,ZrAu2,FAILED_JVASP-35751.cif,0.0,0.0,mBJ,0.0,-0.63151,,I4/mmm
JVASP-30547,CoS2,FAILED_JVASP-30547.cif,0.0,0.0,mBJ,0.0,-0.37476,,R-3m
JVASP-29804,CdH2O2,FAILED_JVASP-29804.cif,1.232,3.371,mBJ,2.139,-0.8864,,P3m1
JVASP-57047,MgSeO4,FAILED_JVASP-57047.cif,3.369,4.778,mBJ,1.409,-1.51526,,Pnma
JVASP-35123,BeGeN2,FAILED_JVASP-35123.cif,3.524,4.692,mBJ,1.168,-0.76407,,Pna2_1
JVASP-35834,CaCoSi,FAILED_JVASP-35834.cif,0.0,0.0,mBJ,0.0,-0.55483,,P4/nmm
JVASP-21078,Tl3AsS4,FAILED_JVASP-21078.cif,1.421,2.073,mBJ,0.652,-0.34094,,Pnma
JVASP-36656,VPt,FAILED_JVASP-36656.cif,0.0,0.0,mBJ,0.0,-0.5534,,Pmma
JVASP-28669,MoW3S8,FAILED_JVASP-28669.cif,0.991,1.049,mBJ,0.058,-0.88506,,P3m1
JVASP-58383,AlF3,FAILED_JVASP-58383.cif,7.803,10.796,mBJ,2.993,-3.7392,,Pm-3m
JVASP-50930,Rb3YO3,FAILED_JVASP-50930.cif,2.248,4.771,mBJ,2.523,-2.13774,,C2/m
JVASP-42458,LiV2O3F3,FAILED_JVASP-42458.cif,0.0,0.0,mBJ,0.0,-2.7355,,P1
JVASP-57604,NaMgF3,FAILED_JVASP-57604.cif,6.338,10.748,mBJ,4.41,-3.40881,,Pm-3m
JVASP-54348,Np3In,FAILED_JVASP-54348.cif,0.0,0.0,mBJ,0.0,0.14965,,Pm-3m
JVASP-30601,CrS2,FAILED_JVASP-30601.cif,0.0,0.0,mBJ,0.0,-0.57149,,R-3m
JVASP-36162,CrNi3,FAILED_JVASP-36162.cif,0.0,0.0,mBJ,0.0,0.12495,,Fm-3m
JVASP-36622,CaGeO3,FAILED_JVASP-36622.cif,0.687,2.678,mBJ,1.991,-2.3841,,Pm-3m
JVASP-22547,BaGa2Te4,FAILED_JVASP-22547.cif,0.688,1.245,mBJ,0.557,-0.79016,,I422
JVASP-56209,PCl5,FAILED_JVASP-56209.cif,1.864,2.9,mBJ,1.036,-0.55299,,C2/m
JVASP-50932,YBiO3,FAILED_JVASP-50932.cif,2.434,3.902,mBJ,1.468,-2.56749,,R-3
JVASP-36467,Ca3SbP,FAILED_JVASP-36467.cif,0.708,1.157,mBJ,0.449,-1.08702,,Pm-3m
JVASP-57521,GaMo4S8,FAILED_JVASP-57521.cif,0.0,0.0,mBJ,0.0,-0.88024,,F-43m
JVASP-36504,Ba3BiP,FAILED_JVASP-36504.cif,0.0,0.277,mBJ,0.277,-0.19234,,Pm-3m
JVASP-35802,Ba2Zn,FAILED_JVASP-35802.cif,0.0,0.0,mBJ,0.0,-0.20441,,I4/mmm
JVASP-35892,HfTaNO3,FAILED_JVASP-35892.cif,1.951,2.896,mBJ,0.945,-2.80913,,Pmm2
JVASP-35663,Lu3AlN,FAILED_JVASP-35663.cif,0.0,0.0,mBJ,0.0,-1.05728,,Pm-3m
JVASP-58424,KRb2ScF6,FAILED_JVASP-58424.cif,6.872,7.773,mBJ,0.901,-3.49336,,Fm-3m
JVASP-59716,Na2FeCuC6N6,FAILED_JVASP-59716.cif,0.0,0.0,mBJ,0.0,0.13035,,Fm-3m
JVASP-29884,CdInGaS4,FAILED_JVASP-29884.cif,0.271,1.539,mBJ,1.268,-0.62538,,P-3m1
JVASP-52653,HfO2,FAILED_JVASP-52653.cif,4.437,6.007,mBJ,1.57,-3.79231,,Pca2_1
JVASP-35714,FeSnRh2,FAILED_JVASP-35714.cif,0.0,0.0,mBJ,0.0,-0.23478,,I4/mmm
JVASP-36657,VN,FAILED_JVASP-36657.cif,0.0,0.0,mBJ,0.0,-1.21076,,P6_3/mmc
JVASP-35752,Zr2Cd,FAILED_JVASP-35752.cif,0.0,0.0,mBJ,0.0,-0.1313,,I4/mmm
JVASP-36210,YBiPd,FAILED_JVASP-36210.cif,0.0,0.182,mBJ,0.182,-0.96985,,F-43m
JVASP-57523,Tl2CuAsO4,FAILED_JVASP-57523.cif,1.536,1.659,mBJ,0.123,-1.03208,,P2_1
JVASP-54997,TmAlSi,FAILED_JVASP-54997.cif,0.0,0.0,mBJ,0.0,-0.59625,,Cmcm
JVASP-35538,LuAl2Ni,FAILED_JVASP-35538.cif,0.0,0.0,mBJ,0.0,-0.6817,,Cmcm
JVASP-29805,CdH2O2,FAILED_JVASP-29805.cif,1.795,3.777,mBJ,1.982,-1.0779,,P-3m1
JVASP-57048,Rb2NaVF6,FAILED_JVASP-57048.cif,0.0,0.0,mBJ,0.0,-3.09002,,Fm-3m
JVASP-22801,Rb3PS4,FAILED_JVASP-22801.cif,2.897,4.056,mBJ,1.159,-1.12473,,Pnma
JVASP-35124,BaNa2MgP2O8,FAILED_JVASP-35124.cif,5.314,7.757,mBJ,2.443,-2.73588,,P-3m1
JVASP-56212,Cr2B,FAILED_JVASP-56212.cif,0.0,0.0,mBJ,0.0,-0.34643,,Fddd
JVASP-42683,Fe3O4F2,FAILED_JVASP-42683.cif,0.0,0.0,mBJ,0.0,-1.62675,,C2
JVASP-36573,CrN2,FAILED_JVASP-36573.cif,0.0,0.0,mBJ,0.0,0.07265,,P3_2
JVASP-57524,UOF4,FAILED_JVASP-57524.cif,2.551,2.496,mBJ,-0.055,-3.35827,,R3m
JVASP-35836,CeCoSi,FAILED_JVASP-35836.cif,0.0,0.0,mBJ,0.0,-0.61754,,P4/nmm
JVASP-35664,MgBe2P2,FAILED_JVASP-35664.cif,0.801,1.328,mBJ,0.527,-0.5666,,P-3m1
JVASP-30603,TaF5,FAILED_JVASP-30603.cif,3.548,4.865,mBJ,1.317,-2.99237,,Immm
JVASP-35495,Tl2CdTe4,FAILED_JVASP-35495.cif,0.0,0.368,mBJ,0.368,-0.13783,,I-42m
JVASP-35715,ErH3,FAILED_JVASP-35715.cif,0.0,0.333,mBJ,0.333,-0.58281,,Fm-3m
JVASP-57049,K6Si2CuO8,FAILED_JVASP-57049.cif,0.607,1.131,mBJ,0.524,-2.16588,,P-1
JVASP-36468,Ba3P2,FAILED_JVASP-36468.cif,0.196,0.849,mBJ,0.653,-0.62379,,Pm-3m
JVASP-35038,PrTeCl,FAILED_JVASP-35038.cif,0.503,0.88,mBJ,0.377,-1.95649,,P4/nmm
JVASP-36163,CrInNi2,FAILED_JVASP-36163.cif,0.0,0.0,mBJ,0.0,0.2316,,Fm-3m
JVASP-36658,YN,FAILED_JVASP-36658.cif,0.325,1.026,mBJ,0.701,-1.61576,,P6_3/mmc
JVASP-35004,MnCoSb,FAILED_JVASP-35004.cif,0.0,0.0,mBJ,0.0,0.02551,,P4/nmm
JVASP-36505,Ba3SbAs,FAILED_JVASP-36505.cif,0.0,0.284,mBJ,0.284,-0.44697,,Pm-3m
JVASP-59720,U2SnPd2,FAILED_JVASP-59720.cif,0.0,0.0,mBJ,0.0,-0.28135,,P4/mbm
JVASP-35716,ErFeC2,FAILED_JVASP-35716.cif,0.0,0.0,mBJ,0.0,-0.37906,,Amm2
JVASP-29806,TeHO3,FAILED_JVASP-29806.cif,2.3,3.309,mBJ,1.009,-1.01425,,Pna2_1
JVASP-32759,BiBr,FAILED_JVASP-32759.cif,0.719,0.901,mBJ,0.182,-0.48601,,C2/m
JVASP-36625,ZnSnO3,FAILED_JVASP-36625.cif,0.0,1.348,mBJ,1.348,-0.98097,,Pm-3m
JVASP-21121,Sm2SiTeO4,FAILED_JVASP-21121.cif,2.027,2.698,mBJ,0.671,-3.0671,,Pbcm
JVASP-36469,Sr3P2,FAILED_JVASP-36469.cif,0.191,0.87,mBJ,0.679,-0.74687,,Pm-3m
JVASP-47722,Li3V2O6,FAILED_JVASP-47722.cif,0.285,2.549,mBJ,2.264,-2.4749,,P-1
JVASP-28482,Te6MoW2,FAILED_JVASP-28482.cif,0.9,0.943,mBJ,0.043,-0.10812,,R3m
JVASP-35357,LaCuPb,FAILED_JVASP-35357.cif,0.0,0.104,mBJ,0.104,-0.46668,,P6_3mc
JVASP-54998,NpSi2Ni2,FAILED_JVASP-54998.cif,0.0,0.0,mBJ,0.0,-0.42174,,I4/mmm
JVASP-36213,VCoTe,FAILED_JVASP-36213.cif,0.0,0.0,mBJ,0.0,0.01162,,F-43m
JVASP-36576,CrN2,FAILED_JVASP-36576.cif,0.09,0.195,mBJ,0.105,0.12907,,P1
JVASP-33027,HF,FAILED_JVASP-33027.cif,7.349,10.939,mBJ,3.59,-1.49177,,Cmcm
JVASP-41602,Na2Hf2O5,FAILED_JVASP-41602.cif,2.15,4.802,mBJ,2.652,-2.98146,,P4/mmm
JVASP-42732,LiVOF4,FAILED_JVASP-42732.cif,3.037,3.341,mBJ,0.304,-2.8996,,P2_1
JVASP-50753,Ce2Th2O7,FAILED_JVASP-50753.cif,0.0,0.0,mBJ,0.0,-3.84881,,P-4m2
JVASP-30550,VS2,FAILED_JVASP-30550.cif,0.0,0.0,mBJ,0.0,-0.94178,,R-3m
JVASP-47723,Li2V3O6,FAILED_JVASP-47723.cif,0.0,0.0,mBJ,0.0,-2.45979,,C2/m
JVASP-56216,TmInAg2,FAILED_JVASP-56216.cif,0.0,0.0,mBJ,0.0,-0.36074,,Fm-3m
JVASP-36470,Sr3AsP,FAILED_JVASP-36470.cif,0.081,0.715,mBJ,0.634,-0.86648,,Pm-3m
JVASP-56217,RbAuCl4,FAILED_JVASP-56217.cif,1.84,2.516,mBJ,0.676,-0.97233,,C2/c
JVASP-37705,PbSe2,FAILED_JVASP-37705.cif,0.014,0.786,mBJ,0.772,-0.35754,,I4/mcm
JVASP-42738,Li4Mn3FeB4O12,FAILED_JVASP-42738.cif,0.033,0.0,mBJ,-0.033,-2.13048,,P1
JVASP-36164,CrH,FAILED_JVASP-36164.cif,0.0,0.0,mBJ,0.0,0.39853,,P6_3/mmc
JVASP-36214,V2C,FAILED_JVASP-36214.cif,0.0,0.0,mBJ,0.0,-0.47814,,P-3m1
JVASP-35496,Tl2CuF4,FAILED_JVASP-35496.cif,0.0,0.0,mBJ,0.0,-1.80102,,I4/mmm
JVASP-30604,SbF5,FAILED_JVASP-30604.cif,0.568,1.475,mBJ,0.907,-1.92193,,Immm
JVASP-21130,Na2Cd3Si3O10,FAILED_JVASP-21130.cif,2.64,4.718,mBJ,2.078,-2.24027,,C2/c
JVASP-35005,MnS2,FAILED_JVASP-35005.cif,0.0,0.0,mBJ,0.0,-0.62811,,Pnnm
JVASP-29568,C,FAILED_JVASP-29568.cif,0.0,0.0,mBJ,0.0,0.01029,,P6/mmm
JVASP-41708,LiMnPt2,FAILED_JVASP-41708.cif,0.0,0.0,mBJ,0.0,-0.47327,,Fm-3m
JVASP-36659,ZnCdSe2,FAILED_JVASP-36659.cif,0.712,2.189,mBJ,1.477,-0.64132,,P-4m2
JVASP-35666,ScBPd3,FAILED_JVASP-35666.cif,0.0,0.0,mBJ,0.0,-0.51907,,Pm-3m
JVASP-36506,Ba3BiAs,FAILED_JVASP-36506.cif,0.0,0.137,mBJ,0.137,-0.33329,,Pm-3m
JVASP-35717,DyFeC2,FAILED_JVASP-35717.cif,0.0,0.0,mBJ,0.0,-0.36772,,Amm2
JVASP-35125,BaSr2MgSi2O8,FAILED_JVASP-35125.cif,5.262,6.892,mBJ,1.63,-3.22218,,P-3m1
JVASP-35839,CeS2,FAILED_JVASP-35839.cif,0.0,0.04,mBJ,0.04,-1.89089,,P4/nmm
JVASP-22913,SrGeO3,FAILED_JVASP-22913.cif,3.425,5.541,mBJ,2.116,-2.47298,,C2/c
JVASP-36165,CaSe,FAILED_JVASP-36165.cif,3.301,4.648,mBJ,1.347,-1.853,,F-43m
JVASP-36471,Sr3PN,FAILED_JVASP-36471.cif,0.519,1.31,mBJ,0.791,-0.9694,,Pm-3m
JVASP-37725,HoAlAu2,FAILED_JVASP-37725.cif,0.0,0.0,mBJ,0.0,-0.76741,,Fm-3m
JVASP-35894,HfO2,FAILED_JVASP-35894.cif,4.725,6.315,mBJ,1.59,-3.76404,,P4_2/nmc
JVASP-41614,YSbPd2,FAILED_JVASP-41614.cif,0.0,0.0,mBJ,0.0,-0.86347,,Fm-3m
JVASP-35808,CaBe2As2,FAILED_JVASP-35808.cif,0.819,1.112,mBJ,0.293,-0.6965,,P-3m1
JVASP-29885,C,FAILED_JVASP-29885.cif,0.242,0.348,mBJ,0.106,0.00073,,R-3m
JVASP-58388,AlBO3,FAILED_JVASP-58388.cif,6.073,7.861,mBJ,1.788,-2.95812,,R-3c
JVASP-28855,Te4MoW,FAILED_JVASP-28855.cif,0.886,0.934,mBJ,0.048,-0.11946,,P-3m1
JVASP-43952,Ta2CrNO5,FAILED_JVASP-43952.cif,0.0,0.0,mBJ,0.0,-2.32723,,Cm
JVASP-35218,Sn4SF6,FAILED_JVASP-35218.cif,2.692,4.018,mBJ,1.326,-2.024,,R3
JVASP-35452,Ce2AlNO3,FAILED_JVASP-35452.cif,0.0,0.0,mBJ,0.0,-2.96026,,I4mm
JVASP-30644,Mo3O8,FAILED_JVASP-30644.cif,0.255,0.588,mBJ,0.333,-1.87588,,C2/m
JVASP-36472,Sr3AsN,FAILED_JVASP-36472.cif,0.492,1.206,mBJ,0.714,-1.04089,,Pm-3m
JVASP-52680,Li5SiP3,FAILED_JVASP-52680.cif,1.286,1.685,mBJ,0.399,-0.67018,,Cc
JVASP-56218,NiPb,FAILED_JVASP-56218.cif,0.0,0.0,mBJ,0.0,0.06787,,P6_3/mmc
JVASP-57525,SiO2,FAILED_JVASP-57525.cif,5.819,6.693,mBJ,0.874,-2.73778,,Pbcn
JVASP-36166,CrCo2Si,FAILED_JVASP-36166.cif,0.0,0.0,mBJ,0.0,-0.23725,,Fm-3m
JVASP-51478,Pb3O4,FAILED_JVASP-51478.cif,1.1,1.727,mBJ,0.627,-1.14455,,Pbam
JVASP-36660,ZnO,FAILED_JVASP-36660.cif,0.859,2.114,mBJ,1.255,-1.32615,,P6_3/mmc
JVASP-55008,KTiPSe5,FAILED_JVASP-55008.cif,0.816,0.853,mBJ,0.037,-0.77353,,C2/m
JVASP-53034,YbDy2S4,FAILED_JVASP-53034.cif,2.183,2.862,mBJ,0.679,-2.31218,,I-42d
JVASP-51480,VO2,FAILED_JVASP-51480.cif,0.805,0.943,mBJ,0.138,-2.12356,,P2/m
JVASP-54820,NdPt,FAILED_JVASP-54820.cif,0.0,0.0,mBJ,0.0,-1.21795,,Cmcm
JVASP-41762,CdGaRh2,FAILED_JVASP-41762.cif,0.0,0.0,mBJ,0.0,-0.33689,,Fm-3m
JVASP-56219,LiB6C,FAILED_JVASP-56219.cif,1.432,1.581,mBJ,0.149,-0.27184,,Amm2
JVASP-22548,RbNO3,FAILED_JVASP-22548.cif,3.042,4.239,mBJ,1.197,-1.01418,,R-3c
JVASP-36507,Ba3BiSb,FAILED_JVASP-36507.cif,0.0,0.375,mBJ,0.375,-0.51756,,Pm-3m
JVASP-35667,Ni3SnN,FAILED_JVASP-35667.cif,0.0,0.0,mBJ,0.0,-0.03207,,Pm-3m
JVASP-29886,CdCl2,FAILED_JVASP-29886.cif,2.823,5.063,mBJ,2.24,-1.02549,,P-4m2
JVASP-31890,MoCl4,FAILED_JVASP-31890.cif,0.0,0.016,mBJ,0.016,-0.86189,,P-31m
JVASP-36167,CrFe2Sb,FAILED_JVASP-36167.cif,0.0,0.0,mBJ,0.0,0.23522,,Fm-3m
JVASP-31934,H4N2O3,FAILED_JVASP-31934.cif,0.106,0.394,mBJ,0.288,-0.08653,,C2
JVASP-29807,MnH2O2,FAILED_JVASP-29807.cif,0.0,0.0,mBJ,0.0,-0.5672,,P3m1
JVASP-28533,Te2Mo2WSe2S2,FAILED_JVASP-28533.cif,0.093,0.0,mBJ,-0.093,-0.5005,,Cm
JVASP-35720,CrFe2Si,FAILED_JVASP-35720.cif,0.0,0.0,mBJ,0.0,-0.21952,,Fm-3m
JVASP-35453,Sm2AlNO3,FAILED_JVASP-35453.cif,1.232,2.415,mBJ,1.183,-3.0483,,I4mm
JVASP-28535,Te2MoW2Se2S2,FAILED_JVASP-28535.cif,0.023,0.0,mBJ,-0.023,-0.45768,,Cm
JVASP-54821,LiI,FAILED_JVASP-54821.cif,4.553,5.968,mBJ,1.415,-1.29779,,P6_3mc
JVASP-58627,PrTi2O6,FAILED_JVASP-58627.cif,0.0,1.535,mBJ,1.535,-3.0696,,Pmn2_1
JVASP-41871,Sc2PdPt,FAILED_JVASP-41871.cif,0.0,0.0,mBJ,0.0,-1.1402,,Fm-3m
JVASP-42786,NaLiFe2Si4O12,FAILED_JVASP-42786.cif,0.0,0.0,mBJ,0.0,-2.36709,,C2
JVASP-35754,NbInSe2,FAILED_JVASP-35754.cif,0.0,0.0,mBJ,0.0,-0.72396,,P-6m2
JVASP-41913,ScBr2,FAILED_JVASP-41913.cif,0.0,0.0,mBJ,0.0,-1.52434,,P4_2/mnm
JVASP-35405,TiCr2Te4,FAILED_JVASP-35405.cif,0.0,0.0,mBJ,0.0,-0.3339,,C2/m
JVASP-41629,Ti2NiIr,FAILED_JVASP-41629.cif,0.0,0.0,mBJ,0.0,-0.6739,,Fm-3m
JVASP-35668,TlN,FAILED_JVASP-35668.cif,0.0,0.0,mBJ,0.0,0.87544,,P6_3mc
JVASP-35895,HgSe,FAILED_JVASP-35895.cif,0.803,1.64,mBJ,0.837,-0.01333,,P3_221
JVASP-36168,CrFe2Sn,FAILED_JVASP-36168.cif,0.0,0.0,mBJ,0.0,0.22433,,Fm-3m
JVASP-35721,Ti2InFe,FAILED_JVASP-35721.cif,0.0,0.282,mBJ,0.282,-0.01813,,F-43m
JVASP-35126,Ca2GeO4,FAILED_JVASP-35126.cif,3.871,5.889,mBJ,2.018,-2.6065,,P-3m1