material_id,formula,cif_path,pbe_bandgap,hse_bandgap,gap_type,correction,formation_energy,total_energy,spacegroup
JVASP-4588,Na2S,FAILED_JVASP-4588.cif,1.921,4.053,mBJ,2.132,-1.1215,,P6_3/mmc
JVASP-26392,YBi2IO4,FAILED_JVASP-26392.cif,1.527,2.983,mBJ,1.456,-2.104,,P4/mmm
JVASP-25383,Na,FAILED_JVASP-25383.cif,0.0,23.496,mBJ,23.496,0.00079,,Fm-3m
JVASP-36580,TiZnN2,FAILED_JVASP-36580.cif,2.389,2.731,mBJ,0.342,-0.99448,,Pna2_1
JVASP-37254,SmLuTl2,FAILED_JVASP-37254.cif,0.0,0.0,mBJ,0.0,-0.32645,,Fm-3m
JVASP-40842,BaNaSb,FAILED_JVASP-40842.cif,0.415,0.817,mBJ,0.402,-0.72433,,F-43m
JVASP-56853,MgZn2,FAILED_JVASP-56853.cif,0.0,0.0,mBJ,0.0,-0.02232,,Cmcm
JVASP-39245,Hg3C,FAILED_JVASP-39245.cif,0.0,0.0,mBJ,0.0,1.67277,,Pm-3m
JVASP-25065,Li,FAILED_JVASP-25065.cif,0.0,0.0,mBJ,0.0,0.0,,P6_3/mmc
JVASP-37427,Dy3Y,FAILED_JVASP-37427.cif,0.0,0.0,mBJ,0.0,0.01669,,Pm-3m
JVASP-40383,Ho2CuRh,FAILED_JVASP-40383.cif,0.0,0.0,mBJ,0.0,-0.64728,,Fm-3m
JVASP-37219,SmGaO3,FAILED_JVASP-37219.cif,2.899,4.096,mBJ,1.197,-2.72894,,Pm-3m
JVASP-35231,K2Sn,FAILED_JVASP-35231.cif,0.0,0.0,mBJ,0.0,-0.00625,,Fm-3m
JVASP-16360,AlFeCo2,FAILED_JVASP-16360.cif,0.0,0.0,mBJ,0.0,-0.34239,,Fm-3m
JVASP-25131,S,FAILED_JVASP-25131.cif,0.0,0.0,mBJ,0.0,0.45961,,Pm-3m
JVASP-38791,LiLu2Ru,FAILED_JVASP-38791.cif,0.0,0.0,mBJ,0.0,-0.39451,,Fm-3m
JVASP-37334,Sm3Th,FAILED_JVASP-37334.cif,0.0,0.0,mBJ,0.0,0.04864,,I4/mmm
JVASP-39203,Ho2RuAu,FAILED_JVASP-39203.cif,0.0,0.0,mBJ,0.0,-0.67544,,Fm-3m
JVASP-28797,TeMo2Se2S,FAILED_JVASP-28797.cif,0.025,0.0,mBJ,-0.025,-0.59459,,Cm
JVASP-38914,Ho2S3,FAILED_JVASP-38914.cif,2.538,3.348,mBJ,0.81,-2.21673,,R-3c
JVASP-16695,Tm2Al3Si2,FAILED_JVASP-16695.cif,0.0,0.0,mBJ,0.0,-0.51747,,C2/m
JVASP-39330,Hg3F,FAILED_JVASP-39330.cif,0.0,0.0,mBJ,0.0,-0.30518,,Fm-3m
JVASP-37471,Yb3W,FAILED_JVASP-37471.cif,0.0,0.0,mBJ,0.0,0.53348,,Fm-3m
JVASP-961,Pb,FAILED_JVASP-961.cif,0.0,0.0,mBJ,0.0,0.0,,Fm-3m
JVASP-15921,LuSbPt,FAILED_JVASP-15921.cif,0.0,0.013,mBJ,0.013,-1.20256,,F-43m
JVASP-39283,Lu2ZnPd,FAILED_JVASP-39283.cif,0.0,0.0,mBJ,0.0,-0.69573,,Fm-3m
JVASP-25115,Hg,FAILED_JVASP-25115.cif,0.0,0.0,mBJ,0.0,0.24175,,Im-3m
JVASP-25331,Se,FAILED_JVASP-25331.cif,0.0,0.0,mBJ,0.0,0.13368,,Pm-3m
JVASP-38233,Rb3Ir,FAILED_JVASP-38233.cif,0.414,0.506,mBJ,0.092,0.57557,,Fm-3m
JVASP-40843,SrCaSi,FAILED_JVASP-40843.cif,0.564,0.783,mBJ,0.219,0.14965,,F-43m
JVASP-39474,Re3Ir,FAILED_JVASP-39474.cif,0.0,0.0,mBJ,0.0,-0.0802,,I4/mmm
JVASP-25082,U,FAILED_JVASP-25082.cif,0.0,0.0,mBJ,0.0,0.24737,,Im-3m
JVASP-37255,Sm2AgHg,FAILED_JVASP-37255.cif,0.0,0.0,mBJ,0.0,-0.35362,,Fm-3m
JVASP-40258,LiHo2Ga,FAILED_JVASP-40258.cif,0.0,0.0,mBJ,0.0,-0.31057,,Fm-3m
JVASP-25066,Rb,FAILED_JVASP-25066.cif,0.0,0.0,mBJ,0.0,0.05576,,Fddd
JVASP-36581,MgSiAs2,FAILED_JVASP-36581.cif,1.366,2.097,mBJ,0.731,-0.33708,,I-42d
JVASP-37220,SmLuRu2,FAILED_JVASP-37220.cif,0.0,0.0,mBJ,0.0,-0.35938,,Fm-3m
JVASP-25290,B,FAILED_JVASP-25290.cif,0.0,0.0,mBJ,0.0,0.27263,,Cm
JVASP-16486,ZrSi,FAILED_JVASP-16486.cif,0.0,0.0,mBJ,0.0,-0.87018,,Cmcm
JVASP-40805,TaInNi,FAILED_JVASP-40805.cif,0.0,0.0,mBJ,0.0,0.70159,,F-43m
JVASP-16648,Sc6Te2Os,FAILED_JVASP-16648.cif,0.0,0.0,mBJ,0.0,-0.75579,,P-62m
JVASP-15954,Ho3GaC,FAILED_JVASP-15954.cif,0.0,0.0,mBJ,0.0,1.14469,,Pm-3m
JVASP-38501,PrEr3,FAILED_JVASP-38501.cif,0.0,0.0,mBJ,0.0,0.02114,,Pm-3m
JVASP-16608,VPd2,FAILED_JVASP-16608.cif,0.0,0.0,mBJ,0.0,-0.27663,,Immm
JVASP-37472,Yb3Zr,FAILED_JVASP-37472.cif,0.0,0.0,mBJ,0.0,0.31162,,Fm-3m
JVASP-38792,TbAlAg2,FAILED_JVASP-38792.cif,0.0,0.0,mBJ,0.0,-0.35979,,Fm-3m
JVASP-39858,YbF2,FAILED_JVASP-39858.cif,6.992,10.844,mBJ,3.852,-4.38553,,P4_2/mnm
JVASP-38355,RbBa3,FAILED_JVASP-38355.cif,0.0,0.0,mBJ,0.0,0.12798,,I4/mmm
JVASP-40306,Sr2CdAs2,FAILED_JVASP-40306.cif,0.597,1.425,mBJ,0.828,-1.03126,,Cmc2_1
JVASP-37429,YErZn2,FAILED_JVASP-37429.cif,0.0,0.0,mBJ,0.0,-0.39781,,Fm-3m
JVASP-54689,HNO,FAILED_JVASP-54689.cif,3.124,4.919,mBJ,1.795,-0.07078,,C2/c
JVASP-16449,MnAu2,FAILED_JVASP-16449.cif,0.0,0.0,mBJ,0.0,-0.05493,,I4/mmm
JVASP-38836,Nd2ZnIr,FAILED_JVASP-38836.cif,0.0,0.0,mBJ,0.0,-0.55835,,Fm-3m
JVASP-40844,YSeCl,FAILED_JVASP-40844.cif,1.909,2.377,mBJ,0.468,-1.32907,,F-43m
JVASP-37335,Sm3Ho,FAILED_JVASP-37335.cif,0.0,0.0,mBJ,0.0,0.01051,,Pm-3m
JVASP-25332,Sb,FAILED_JVASP-25332.cif,0.0,0.0,mBJ,0.0,0.25561,,Im-3m
JVASP-39069,SmDyZn2,FAILED_JVASP-39069.cif,0.0,0.0,mBJ,0.0,-0.37109,,Fm-3m
JVASP-16526,ScGa,FAILED_JVASP-16526.cif,0.0,0.0,mBJ,0.0,-0.62394,,Cmcm
JVASP-39204,K3Y,FAILED_JVASP-39204.cif,0.0,0.0,mBJ,0.0,0.52743,,I4/mmm
JVASP-25116,C,FAILED_JVASP-25116.cif,0.0,0.468,mBJ,0.468,1.29585,,I4_132
JVASP-35537,TbO3,FAILED_JVASP-35537.cif,0.135,3.325,mBJ,3.19,-1.69945,,P6_3/m
JVASP-38915,NdHo3,FAILED_JVASP-38915.cif,0.0,0.0,mBJ,0.0,0.01817,,Pm-3m
JVASP-37256,Sc3Sb,FAILED_JVASP-37256.cif,0.0,0.0,mBJ,0.0,-0.51172,,I4/mmm
JVASP-38669,NaRe3,FAILED_JVASP-38669.cif,0.0,0.0,mBJ,0.0,0.72361,,Fm-3m
JVASP-25625,KRb2VF6,FAILED_JVASP-25625.cif,0.0,0.0,mBJ,0.0,-2.88598,,P-1
JVASP-37381,Tm2CuPd,FAILED_JVASP-37381.cif,0.0,0.0,mBJ,0.0,-0.65531,,Fm-3m
JVASP-25385,Nd,FAILED_JVASP-25385.cif,0.0,0.0,mBJ,0.0,0.00578,,R-3m
JVASP-38502,K2RbSb,FAILED_JVASP-38502.cif,1.033,1.961,mBJ,0.928,-0.51032,,Fm-3m
JVASP-16487,TaSe2,FAILED_JVASP-16487.cif,0.0,0.0,mBJ,0.0,-0.8047,,P-3m1
JVASP-39496,NaYSi,FAILED_JVASP-39496.cif,0.212,0.659,mBJ,0.447,0.11761,,F-43m
JVASP-40806,ZrInAu,FAILED_JVASP-40806.cif,0.525,0.549,mBJ,0.024,-0.49142,,F-43m
JVASP-37473,Yb3V,FAILED_JVASP-37473.cif,0.0,0.0,mBJ,0.0,0.4113,,I4/mmm
JVASP-16808,Mg2Rh,FAILED_JVASP-16808.cif,0.0,0.0,mBJ,0.0,-0.4463,,I4/mmm
JVASP-26393,NbTlBr4O,FAILED_JVASP-26393.cif,1.334,1.54,mBJ,0.206,-1.28921,,C2
JVASP-38793,YbFeB4,FAILED_JVASP-38793.cif,0.0,0.0,mBJ,0.0,-0.5134,,Pbam
JVASP-38235,Rb3Hg,FAILED_JVASP-38235.cif,0.0,0.0,mBJ,0.0,-0.02847,,Pm-3m
JVASP-16527,ScGa2,FAILED_JVASP-16527.cif,0.0,0.0,mBJ,0.0,-0.56129,,Imma
JVASP-40636,Si2O5,FAILED_JVASP-40636.cif,3.228,4.531,mBJ,1.303,-2.18241,,Ima2
JVASP-15879,Ca2As,FAILED_JVASP-15879.cif,0.011,0.038,mBJ,0.027,-1.05716,,I4/mmm
JVASP-29163,MoWSe3S,FAILED_JVASP-29163.cif,0.551,0.861,mBJ,0.31,-0.66563,,P3m1
JVASP-54690,LuH3O3,FAILED_JVASP-54690.cif,5.089,7.698,mBJ,2.609,-2.08086,,R-3
JVASP-38180,Rb3Y,FAILED_JVASP-38180.cif,0.0,0.0,mBJ,0.0,0.57087,,Fm-3m
JVASP-16450,ScAu,FAILED_JVASP-16450.cif,0.0,0.0,mBJ,0.0,-0.86685,,Pm-3m
JVASP-36582,MgGeAs2,FAILED_JVASP-36582.cif,0.554,1.65,mBJ,1.096,-0.29762,,I-42d
JVASP-37296,Sm3Zn,FAILED_JVASP-37296.cif,0.0,0.0,mBJ,0.0,-0.06328,,I4/mmm
JVASP-25386,Na,FAILED_JVASP-25386.cif,0.0,23.499,mBJ,23.499,0.00084,,I4/mmm
JVASP-39248,Lu2TcAu,FAILED_JVASP-39248.cif,0.0,0.0,mBJ,0.0,-0.51563,,Fm-3m
JVASP-56857,RbCu2Br3,FAILED_JVASP-56857.cif,1.874,3.014,mBJ,1.14,-0.82619,,Cmcm
JVASP-39289,K3Sr,FAILED_JVASP-39289.cif,0.0,0.0,mBJ,0.0,0.1059,,Fm-3m
JVASP-38440,PrSmZn2,FAILED_JVASP-38440.cif,0.0,0.0,mBJ,0.0,-0.35766,,Fm-3m
JVASP-39498,BaSrSn,FAILED_JVASP-39498.cif,0.083,0.311,mBJ,0.228,-0.30491,,F-43m
JVASP-38294,RbSr3,FAILED_JVASP-38294.cif,0.0,0.0,mBJ,0.0,0.12297,,Fm-3m
JVASP-39440,RuI,FAILED_JVASP-39440.cif,0.0,0.0,mBJ,0.0,0.92703,,P6_3mc
JVASP-37474,Yb3V,FAILED_JVASP-37474.cif,0.0,0.0,mBJ,0.0,0.42333,,Fm-3m
JVASP-41278,TiZnIr2,FAILED_JVASP-41278.cif,0.0,0.0,mBJ,0.0,-0.72524,,Fm-3m
JVASP-16320,VSi2,FAILED_JVASP-16320.cif,0.0,0.0,mBJ,0.0,-0.33187,,P6_222
JVASP-25117,Li,FAILED_JVASP-25117.cif,0.0,0.0,mBJ,0.0,-0.00054,,R-3m
JVASP-15880,NpP,FAILED_JVASP-15880.cif,0.0,0.0,mBJ,0.0,-1.09895,,Fm-3m
JVASP-26682,K3Co2F7,FAILED_JVASP-26682.cif,0.0,0.0,mBJ,0.0,-2.44241,,I4/mmm
JVASP-36583,HfZnO3,FAILED_JVASP-36583.cif,0.0,1.191,mBJ,1.191,-2.21294,,Pm-3m
JVASP-19624,ScCd,FAILED_JVASP-19624.cif,0.0,0.0,mBJ,0.0,-0.32128,,Pm-3m
JVASP-25068,Lu,FAILED_JVASP-25068.cif,0.0,0.0,mBJ,0.0,0.14645,,Im-3m
JVASP-38503,NaAl3,FAILED_JVASP-38503.cif,0.0,0.0,mBJ,0.0,0.10495,,I4/mmm
JVASP-38182,KSr3,FAILED_JVASP-38182.cif,0.0,0.0,mBJ,0.0,0.0925,,I4/mmm
JVASP-16284,ThSb,FAILED_JVASP-16284.cif,0.0,0.0,mBJ,0.0,-0.82714,,Pm-3m
JVASP-16771,TaAs2,FAILED_JVASP-16771.cif,0.0,0.0,mBJ,0.0,-0.44629,,C2/m
JVASP-37475,Yb3V,FAILED_JVASP-37475.cif,0.0,0.0,mBJ,0.0,0.42914,,Pm-3m
JVASP-38295,RbSr3,FAILED_JVASP-38295.cif,0.0,0.0,mBJ,0.0,0.11774,,I4/mmm
JVASP-15923,Ta2N,FAILED_JVASP-15923.cif,0.0,0.0,mBJ,0.0,-0.88746,,P-3m1
JVASP-41279,HfMgPd2,FAILED_JVASP-41279.cif,0.0,0.0,mBJ,0.0,-0.73477,,Fm-3m
JVASP-40385,TbBS3,FAILED_JVASP-40385.cif,2.424,3.244,mBJ,0.82,-1.36699,,Pna2_1
JVASP-15881,NpS,FAILED_JVASP-15881.cif,0.0,0.0,mBJ,0.0,-1.63647,,Fm-3m
JVASP-39334,Ho2CuTc,FAILED_JVASP-39334.cif,0.0,0.0,mBJ,0.0,-0.18076,,Fm-3m
JVASP-25132,Si,FAILED_JVASP-25132.cif,0.0,0.0,mBJ,0.0,0.40276,,Fmmm
JVASP-26395,Ca4Bi2O,FAILED_JVASP-26395.cif,0.837,1.198,mBJ,0.361,-1.67337,,I4/mmm
JVASP-36584,MgSnO3,FAILED_JVASP-36584.cif,1.176,3.236,mBJ,2.06,-1.61484,,Pm-3m
JVASP-16451,Ti3Au,FAILED_JVASP-16451.cif,0.0,0.0,mBJ,0.0,-0.25209,,Pm-3m
JVASP-40809,MnCoSi,FAILED_JVASP-40809.cif,0.0,0.0,mBJ,0.0,-0.1677,,F-43m
JVASP-28942,TeMoWSe2S,FAILED_JVASP-28942.cif,0.199,0.245,mBJ,0.046,-0.52453,,P3m1
JVASP-37559,TmScRu2,FAILED_JVASP-37559.cif,0.0,0.0,mBJ,0.0,-0.52921,,Fm-3m
JVASP-39508,KYSn,FAILED_JVASP-39508.cif,0.797,1.122,mBJ,0.325,-0.01826,,F-43m
JVASP-38237,Rb3Ho,FAILED_JVASP-38237.cif,0.0,0.0,mBJ,0.0,0.58539,,Fm-3m
JVASP-40594,RbBaTaS4,FAILED_JVASP-40594.cif,2.458,2.937,mBJ,0.479,-1.63518,,Pnma
JVASP-40639,TaInRu2,FAILED_JVASP-40639.cif,0.0,0.0,mBJ,0.0,-0.30065,,Fm-3m
JVASP-16857,Cu2GeTe3,FAILED_JVASP-16857.cif,0.0,0.0,mBJ,0.0,-0.07533,,Imm2
JVASP-38918,HoMnB4,FAILED_JVASP-38918.cif,0.0,0.0,mBJ,0.0,-0.67283,,Pbam
JVASP-38882,HoSbPd2,FAILED_JVASP-38882.cif,0.0,0.0,mBJ,0.0,-0.85733,,Fm-3m
JVASP-37384,TmMg2Sc,FAILED_JVASP-37384.cif,0.0,0.0,mBJ,0.0,-0.02945,,Fm-3m
JVASP-16610,ZrPt,FAILED_JVASP-16610.cif,0.0,0.0,mBJ,0.0,-0.96944,,Pm-3m
JVASP-25387,Re,FAILED_JVASP-25387.cif,0.0,0.0,mBJ,0.0,0.01231,,R-3m
JVASP-834,Be,FAILED_JVASP-834.cif,0.0,0.0,mBJ,0.0,0.0,,P6_3/mmc
JVASP-16488,P2W,FAILED_JVASP-16488.cif,0.0,0.0,mBJ,0.0,-0.36828,,Cmc2_1
JVASP-28801,Mo2SeS3,FAILED_JVASP-28801.cif,0.793,0.772,mBJ,-0.021,-0.87947,,Amm2
JVASP-15955,Nd3GaC,FAILED_JVASP-15955.cif,0.0,0.0,mBJ,0.0,1.17506,,Pm-3m
JVASP-38360,NdMgO3,FAILED_JVASP-38360.cif,0.0,0.0,mBJ,0.0,-2.72539,,Pm-3m
JVASP-16571,LuNi2Sn,FAILED_JVASP-16571.cif,0.0,0.0,mBJ,0.0,-0.54205,,Fm-3m
JVASP-963,Pd,FAILED_JVASP-963.cif,0.0,0.0,mBJ,0.0,0.0,,Fm-3m
JVASP-39071,SmHoRu2,FAILED_JVASP-39071.cif,0.0,0.0,mBJ,0.0,-0.31567,,Fm-3m
JVASP-25388,Rb,FAILED_JVASP-25388.cif,0.0,0.0,mBJ,0.0,-0.0007,,P6_3/mmc
JVASP-39019,SnBO3,FAILED_JVASP-39019.cif,0.0,0.0,mBJ,0.0,-0.99197,,Pm-3m
JVASP-37258,SmEr3,FAILED_JVASP-37258.cif,0.0,0.0,mBJ,0.0,0.01611,,I4/mmm
JVASP-40261,LiHfRh2,FAILED_JVASP-40261.cif,0.0,0.0,mBJ,0.0,-0.7626,,Fm-3m
JVASP-15924,ZrO,FAILED_JVASP-15924.cif,0.0,0.0,mBJ,0.0,-2.50953,,Fm-3m
JVASP-19655,ErTe,FAILED_JVASP-19655.cif,0.0,0.622,mBJ,0.622,-1.24327,,Fm-3m
JVASP-36585,BaSiO3,FAILED_JVASP-36585.cif,1.476,2.415,mBJ,0.939,-2.6724,,Pm-3m
JVASP-38795,TbCdPd2,FAILED_JVASP-38795.cif,0.0,0.0,mBJ,0.0,-0.75226,,Fm-3m
JVASP-16321,ScRh3C,FAILED_JVASP-16321.cif,0.0,0.0,mBJ,0.0,-0.51597,,Pm-3m
JVASP-16743,FeN,FAILED_JVASP-16743.cif,0.0,0.0,mBJ,0.0,-0.09781,,P6_3/mmc
JVASP-17189,Ti2Pd,FAILED_JVASP-17189.cif,0.0,0.0,mBJ,0.0,-0.4539,,I4/mmm
JVASP-39207,HoLuAg2,FAILED_JVASP-39207.cif,0.0,0.0,mBJ,0.0,-0.37883,,Fm-3m
JVASP-37223,Si3Os,FAILED_JVASP-37223.cif,0.0,0.0,mBJ,0.0,0.43367,,Fm-3m
JVASP-40310,Sr2HgPb,FAILED_JVASP-40310.cif,0.167,0.297,mBJ,0.13,-0.62711,,Fm-3m
JVASP-39477,Re2C,FAILED_JVASP-39477.cif,0.0,0.0,mBJ,0.0,-0.03604,,P6_3/mmc
JVASP-38679,HoTmCu2,FAILED_JVASP-38679.cif,0.0,0.0,mBJ,0.0,-0.33326,,Fm-3m
JVASP-39335,Pa3Tl,FAILED_JVASP-39335.cif,0.0,0.0,mBJ,0.0,0.15446,,I4/mmm
JVASP-37385,TmO3,FAILED_JVASP-37385.cif,0.0,0.0,mBJ,0.0,-1.74433,,Fm-3m
JVASP-26396,PrBi2BrO4,FAILED_JVASP-26396.cif,1.289,2.716,mBJ,1.427,-2.09586,,P4/mmm
JVASP-25360,Dy,FAILED_JVASP-25360.cif,0.0,0.0,mBJ,0.0,0.01266,,P6_3/mmc
JVASP-40810,ScGeAu,FAILED_JVASP-40810.cif,0.344,0.386,mBJ,0.042,-0.71961,,F-43m
JVASP-16529,TaGa3,FAILED_JVASP-16529.cif,0.0,0.0,mBJ,0.0,-0.1189,,I4/mmm
JVASP-15956,KMnTe2,FAILED_JVASP-15956.cif,0.0,0.0,mBJ,0.0,-0.47192,,I-4m2
JVASP-15925,Mn3PdN,FAILED_JVASP-15925.cif,0.0,0.0,mBJ,0.0,-0.13634,,Pm-3m
JVASP-25295,I,FAILED_JVASP-25295.cif,0.0,0.0,mBJ,0.0,0.07074,,Immm
JVASP-19620,TbCo5,FAILED_JVASP-19620.cif,0.0,0.0,mBJ,0.0,-0.12787,,P6/mmm
JVASP-16366,MnAlPd2,FAILED_JVASP-16366.cif,0.0,0.0,mBJ,0.0,-0.52836,,Fm-3m
JVASP-885,Ga,FAILED_JVASP-885.cif,0.0,0.0,mBJ,0.0,0.0,,Cmce
JVASP-38185,Rb3V,FAILED_JVASP-38185.cif,0.0,0.0,mBJ,0.0,0.8586,,Fm-3m
JVASP-54692,NdH3O3,FAILED_JVASP-54692.cif,3.768,6.336,mBJ,2.568,-2.01225,,P6_3/m
JVASP-19625,NdSb,FAILED_JVASP-19625.cif,0.0,0.0,mBJ,0.0,-0.959,,P4/mmm
JVASP-38883,MgSbRu2,FAILED_JVASP-38883.cif,0.0,0.0,mBJ,0.0,-0.16235,,Fm-3m
JVASP-25626,BaSi6N8O,FAILED_JVASP-25626.cif,4.262,5.385,mBJ,1.123,-1.45148,,Imm2
JVASP-26716,Na4Ti5O12,FAILED_JVASP-26716.cif,2.57,2.967,mBJ,0.397,-2.93753,,P-3
JVASP-39510,YTlCd,FAILED_JVASP-39510.cif,0.0,0.0,mBJ,0.0,0.01293,,F-43m
JVASP-37727,TbSc,FAILED_JVASP-37727.cif,0.0,0.0,mBJ,0.0,0.05308,,P-6m2
JVASP-25296,Rb,FAILED_JVASP-25296.cif,0.0,12.53,mBJ,12.53,0.00075,,Im-3m
JVASP-19656,VIr,FAILED_JVASP-19656.cif,0.0,0.0,mBJ,0.0,-0.51379,,P4/mmm
JVASP-37298,Sm3Pd,FAILED_JVASP-37298.cif,0.0,0.0,mBJ,0.0,-0.1857,,I4/mmm
JVASP-16572,LuPb2,FAILED_JVASP-16572.cif,0.0,0.0,mBJ,0.0,-0.13382,,I4/mmm
JVASP-37259,SmLuZn2,FAILED_JVASP-37259.cif,0.0,0.0,mBJ,0.0,-0.36561,,Fm-3m
JVASP-37224,Si3Ru,FAILED_JVASP-37224.cif,0.0,0.0,mBJ,0.0,0.32902,,Fm-3m
JVASP-19626,VS,FAILED_JVASP-19626.cif,0.0,0.0,mBJ,0.0,-0.63798,,P6_3/mmc
JVASP-28555,Mo2WSe2S4,FAILED_JVASP-28555.cif,0.786,0.704,mBJ,-0.082,-0.77562,,P3m1
JVASP-39072,SmDyRh2,FAILED_JVASP-39072.cif,0.0,0.0,mBJ,0.0,-0.84628,,Fm-3m
JVASP-40596,LiTm2Pt,FAILED_JVASP-40596.cif,0.0,0.0,mBJ,0.0,-0.74674,,Fm-3m
JVASP-37770,HfMgAu2,FAILED_JVASP-37770.cif,0.0,0.0,mBJ,0.0,-0.61346,,Fm-3m
JVASP-40311,Sr2LiIn,FAILED_JVASP-40311.cif,0.0,0.0,mBJ,0.0,-0.29419,,Fm-3m
JVASP-56861,Sr2CN2Cl2,FAILED_JVASP-56861.cif,4.403,6.004,mBJ,1.601,-1.71865,,C2/m
JVASP-39208,HoLuAu2,FAILED_JVASP-39208.cif,0.0,0.0,mBJ,0.0,-0.95271,,Fm-3m
JVASP-25361,Cr,FAILED_JVASP-25361.cif,0.0,0.0,mBJ,0.0,0.39199,,P6_3/mmc
JVASP-56303,UPt,FAILED_JVASP-56303.cif,0.0,0.0,mBJ,0.0,-0.60718,,Cmcm
JVASP-19627,Ti2O,FAILED_JVASP-19627.cif,0.0,0.0,mBJ,0.0,-1.95529,,P-3m1
JVASP-19699,CdAu,FAILED_JVASP-19699.cif,0.0,0.0,mBJ,0.0,-0.17971,,Pmma
JVASP-16649,Lu6Sb2Mo,FAILED_JVASP-16649.cif,0.0,0.0,mBJ,0.0,-0.5463,,P-62m
JVASP-26397,DyBi2ClO4,FAILED_JVASP-26397.cif,1.411,3.127,mBJ,1.716,-2.22087,,P4/mmm
JVASP-37513,YbPrCd2,FAILED_JVASP-37513.cif,0.0,0.0,mBJ,0.0,-0.43299,,Fm-3m
JVASP-19657,VC,FAILED_JVASP-19657.cif,0.0,0.0,mBJ,0.0,-0.48335,,Fm-3m
JVASP-25297,Sr,FAILED_JVASP-25297.cif,0.0,0.0,mBJ,0.0,0.21664,,P6/mmm
JVASP-17190,YbAgO2,FAILED_JVASP-17190.cif,0.0,0.0,mBJ,0.0,-1.76709,,R-3m
JVASP-40812,NaMgP,FAILED_JVASP-40812.cif,0.0,0.377,mBJ,0.377,-0.00794,,F-43m
JVASP-39990,CuH6BrN2,FAILED_JVASP-39990.cif,2.31,2.881,mBJ,0.571,-0.37572,,C2/c
JVASP-40644,SmInRh2,FAILED_JVASP-40644.cif,0.0,0.0,mBJ,0.0,-0.67198,,Fm-3m
JVASP-40266,ScGaRu2,FAILED_JVASP-40266.cif,0.0,0.0,mBJ,0.0,-0.44104,,Fm-3m
JVASP-19590,MnB4,FAILED_JVASP-19590.cif,0.0,0.0,mBJ,0.0,-0.25002,,Immm
JVASP-37661,Ho3Zr,FAILED_JVASP-37661.cif,0.0,0.0,mBJ,0.0,0.07591,,Pm-3m
JVASP-39511,SrMgSn,FAILED_JVASP-39511.cif,0.0,0.0,mBJ,0.0,0.05266,,F-43m
JVASP-38602,HoTlRh2,FAILED_JVASP-38602.cif,0.0,0.0,mBJ,0.0,-0.5698,,Fm-3m
JVASP-16237,Si,FAILED_JVASP-16237.cif,0.0,0.0,mBJ,0.0,0.69586,,P6_3/mmc
JVASP-38507,NaBH4,FAILED_JVASP-38507.cif,6.629,9.044,mBJ,2.415,-0.35356,,F-43m
JVASP-19628,BaGa2,FAILED_JVASP-19628.cif,0.0,0.0,mBJ,0.0,-0.53034,,P6/mmm
JVASP-27264,TiI4,FAILED_JVASP-27264.cif,0.884,0.948,mBJ,0.064,-0.75108,,C2/c
JVASP-37514,Yb3Re,FAILED_JVASP-37514.cif,0.0,0.0,mBJ,0.0,0.38116,,Fm-3m
JVASP-41282,HfInRh2,FAILED_JVASP-41282.cif,0.0,0.0,mBJ,0.0,-0.777,,I4/mmm
JVASP-13817,NbCl4,FAILED_JVASP-13817.cif,0.951,1.234,mBJ,0.283,-1.30806,,C2/m
JVASP-38798,ErInRh2,FAILED_JVASP-38798.cif,0.0,0.0,mBJ,0.0,-0.79661,,Fm-3m
JVASP-1035,Tm,FAILED_JVASP-1035.cif,0.0,0.0,mBJ,0.0,0.0,,P6_3/mmc
JVASP-39402,KNaO3,FAILED_JVASP-39402.cif,0.0,0.0,mBJ,0.0,-0.28176,,Pm-3m
JVASP-38187,Rb3Tm,FAILED_JVASP-38187.cif,0.0,0.0,mBJ,0.0,0.57013,,I4/mmm
JVASP-1056,Zn,FAILED_JVASP-1056.cif,0.0,0.0,mBJ,0.0,0.0,,P6_3/mmc
JVASP-37910,DyAlO3,FAILED_JVASP-37910.cif,3.166,4.497,mBJ,1.331,-3.5098,,Pm-3m
JVASP-37771,HoTmZn2,FAILED_JVASP-37771.cif,0.0,0.0,mBJ,0.0,-0.38396,,Fm-3m
JVASP-16530,TbGa,FAILED_JVASP-16530.cif,0.0,0.0,mBJ,0.0,-0.63548,,Cmcm
JVASP-39442,NdDy3,FAILED_JVASP-39442.cif,0.0,0.0,mBJ,0.0,0.02118,,P6_3/mmc
JVASP-16489,P2W,FAILED_JVASP-16489.cif,0.0,0.0,mBJ,0.0,-0.34429,,C2/m
JVASP-19649,SmS,FAILED_JVASP-19649.cif,0.0,1.631,mBJ,1.631,-2.1702,,Fm-3m
JVASP-39020,SmBS3,FAILED_JVASP-39020.cif,2.431,3.282,mBJ,0.851,-1.38238,,Pna2_1
JVASP-37772,Li3Re,FAILED_JVASP-37772.cif,0.0,0.0,mBJ,0.0,0.77229,,P6_3/mmc
JVASP-15882,SiRh,FAILED_JVASP-15882.cif,0.0,0.0,mBJ,0.0,-0.39433,,Pm-3m
JVASP-38925,MgTi3,FAILED_JVASP-38925.cif,0.0,0.0,mBJ,0.0,0.14657,,P6_3/mmc
JVASP-26398,YbBi2BrO4,FAILED_JVASP-26398.cif,0.0,0.0,mBJ,0.0,-1.80488,,P4/mmm
JVASP-37260,SiRh3,FAILED_JVASP-37260.cif,0.0,0.0,mBJ,0.0,-0.28986,,I4/mmm
JVASP-16367,MnAlPt,FAILED_JVASP-16367.cif,0.0,0.0,mBJ,0.0,-0.59533,,P6_3/mmc
JVASP-37962,Ag3Rh,FAILED_JVASP-37962.cif,0.0,0.0,mBJ,0.0,0.21406,,Pm-3m
JVASP-37662,PrHo3,FAILED_JVASP-37662.cif,0.0,0.0,mBJ,0.0,0.0211,,Pm-3m
JVASP-38445,Hf2RuRh,FAILED_JVASP-38445.cif,0.0,0.0,mBJ,0.0,-0.83136,,Fm-3m
JVASP-16703,DySbPd,FAILED_JVASP-16703.cif,0.0,0.0,mBJ,0.0,-1.06479,,P6_3mc
JVASP-38239,Rb3Mn,FAILED_JVASP-38239.cif,0.0,0.0,mBJ,0.0,0.65996,,I4/mmm
JVASP-37388,Ti2Ag,FAILED_JVASP-37388.cif,0.0,0.0,mBJ,0.0,-0.06731,,I4/mmm
JVASP-38509,NaBeO3,FAILED_JVASP-38509.cif,0.0,0.0,mBJ,0.0,-1.1383,,Pm-3m
JVASP-16243,Sc6FeTe2,FAILED_JVASP-16243.cif,0.0,0.0,mBJ,0.0,-0.66184,,P-62m
JVASP-38680,MgPd5,FAILED_JVASP-38680.cif,0.0,0.0,mBJ,0.0,-0.33749,,R32
JVASP-21194,Ba,FAILED_JVASP-21194.cif,0.0,0.0,mBJ,0.0,0.0,,Im-3m
JVASP-29093,Te6Mo3WS2,FAILED_JVASP-29093.cif,0.0,0.0,mBJ,0.0,-0.28819,,Cm
JVASP-39514,CaCdSi,FAILED_JVASP-39514.cif,0.0,0.0,mBJ,0.0,-0.19397,,F-43m
JVASP-16323,Sm3SnC,FAILED_JVASP-16323.cif,0.0,0.0,mBJ,0.0,1.41673,,Pm-3m
JVASP-17193,PtN,FAILED_JVASP-17193.cif,0.0,0.0,mBJ,0.0,1.215,,P6_3/mmc
JVASP-37301,SrCa3O4,FAILED_JVASP-37301.cif,3.38,4.894,mBJ,1.514,-3.16729,,Pm-3m
JVASP-38886,MgSbPd2,FAILED_JVASP-38886.cif,0.0,0.0,mBJ,0.0,-0.57053,,Fm-3m
JVASP-39635,ZrH3,FAILED_JVASP-39635.cif,0.0,0.148,mBJ,0.148,-0.29902,,Pm-3m
JVASP-16289,YbSi,FAILED_JVASP-16289.cif,0.0,0.0,mBJ,0.0,-0.59135,,Cmcm
JVASP-37227,SmTmMg2,FAILED_JVASP-37227.cif,0.0,0.0,mBJ,0.0,-0.07042,,Fm-3m
JVASP-58251,CaF2,FAILED_JVASP-58251.cif,7.986,9.508,mBJ,1.522,-4.14196,,Pnma
JVASP-16576,MnNi,FAILED_JVASP-16576.cif,0.0,0.0,mBJ,0.0,0.04112,,Pm-3m
JVASP-38544,LiAlH4,FAILED_JVASP-38544.cif,4.237,5.661,mBJ,1.424,-0.23422,,I4_1/a
JVASP-54693,SmH3O3,FAILED_JVASP-54693.cif,3.758,6.126,mBJ,2.368,-2.02937,,P6_3/m
JVASP-19632,Cr3Ga,FAILED_JVASP-19632.cif,0.0,0.0,mBJ,0.0,-0.03774,,Pm-3n
JVASP-36687,SrReN3,FAILED_JVASP-36687.cif,2.044,2.509,mBJ,0.465,-0.65669,,C2/c
JVASP-58253,BaAlBO3F2,FAILED_JVASP-58253.cif,6.646,8.585,mBJ,1.939,-3.40633,,P6_3/m
JVASP-23794,HfFeP,FAILED_JVASP-23794.cif,0.0,0.0,mBJ,0.0,-1.03097,,Pnma
JVASP-25335,S,FAILED_JVASP-25335.cif,1.96,3.027,mBJ,1.067,0.01586,,R-3
JVASP-41285,NaCd3,FAILED_JVASP-41285.cif,0.0,0.0,mBJ,0.0,-0.11372,,Fm-3m
JVASP-17194,PtN,FAILED_JVASP-17194.cif,0.0,0.0,mBJ,0.0,1.06455,,F-43m
JVASP-16324,PdO,FAILED_JVASP-16324.cif,0.0,0.0,mBJ,0.0,-0.14825,,Fm-3m
JVASP-37773,Pm2ZnPt,FAILED_JVASP-37773.cif,0.0,0.0,mBJ,0.0,-0.75433,,Fm-3m
JVASP-37562,Yb2Nd2O5,FAILED_JVASP-37562.cif,0.316,1.974,mBJ,1.658,-2.92995,,P4/mmm
JVASP-15884,ScBIr3,FAILED_JVASP-15884.cif,0.0,0.0,mBJ,0.0,-0.65098,,Pm-3m
JVASP-37663,PrH3,FAILED_JVASP-37663.cif,0.362,1.041,mBJ,0.679,-0.56089,,I4/mmm
JVASP-808,Ho,FAILED_JVASP-808.cif,0.0,0.0,mBJ,0.0,0.0086,,P6_3/mmc
JVASP-16290,SmTe,FAILED_JVASP-16290.cif,0.0,0.0,mBJ,0.0,-1.30706,,Pm-3m