material_id,formula,cif_path,pbe_bandgap,hse_bandgap,gap_type,correction,formation_energy,total_energy,spacegroup
JVASP-47822,LiFeSiO4,FAILED_JVASP-47822.cif,0.0,0.0,mBJ,0.0,-2.20605,,Cmcm
JVASP-8494,UNiSn,FAILED_JVASP-8494.cif,0.0,0.006,mBJ,0.006,-0.20043,,F-43m
JVASP-15904,MnSbIr,FAILED_JVASP-15904.cif,0.0,0.0,mBJ,0.0,-0.11396,,F-43m
JVASP-8157,BaThO3,FAILED_JVASP-8157.cif,3.338,4.451,mBJ,1.113,-3.51994,,Pm-3m
JVASP-8070,Na2PdC2,FAILED_JVASP-8070.cif,0.89,1.334,mBJ,0.444,-0.04044,,P-3m1
JVASP-8636,SmVO3,FAILED_JVASP-8636.cif,0.0,0.0,mBJ,0.0,-2.97427,,Pm-3m
JVASP-7659,NaLi2N,FAILED_JVASP-7659.cif,2.797,3.486,mBJ,0.689,-0.10557,,Fm-3m
JVASP-8607,KH2N,FAILED_JVASP-8607.cif,2.383,4.704,mBJ,2.321,-0.402,,P2_1/m
JVASP-51267,SiBPb,FAILED_JVASP-51267.cif,0.0,0.0,mBJ,0.0,1.4065,,F-43m
JVASP-50126,Sm2TeO6,FAILED_JVASP-50126.cif,2.734,3.753,mBJ,1.019,-2.57502,,P4_2/mnm
JVASP-4346,P4S3,FAILED_JVASP-4346.cif,2.305,2.897,mBJ,0.592,-0.14844,,Pnma
JVASP-8702,Li2GePd,FAILED_JVASP-8702.cif,0.0,0.0,mBJ,0.0,-0.43009,,Fm-3m
JVASP-7792,ZnAgF3,FAILED_JVASP-7792.cif,1.764,4.494,mBJ,2.73,-1.85228,,Pm-3m
JVASP-56890,SrBr2,FAILED_JVASP-56890.cif,4.65,6.494,mBJ,1.844,-2.24442,,Pnma
JVASP-8119,ScSbPt,FAILED_JVASP-8119.cif,0.582,0.748,mBJ,0.166,-1.16838,,F-43m
JVASP-8250,CaCrF6,FAILED_JVASP-8250.cif,0.0,0.0,mBJ,0.0,-3.16728,,R-3
JVASP-32400,RuO4,FAILED_JVASP-32400.cif,2.349,2.622,mBJ,0.273,-0.75579,,C2/c
JVASP-8158,SiC,FAILED_JVASP-8158.cif,1.62,2.308,mBJ,0.688,-0.24417,,F-43m
JVASP-7916,UGe2Pt2,FAILED_JVASP-7916.cif,0.0,0.0,mBJ,0.0,-0.42323,,I4/mmm
JVASP-29784,NiH2O2,FAILED_JVASP-29784.cif,0.0,0.0,mBJ,0.0,-0.74477,,P-3m1
JVASP-11798,PrVO4,FAILED_JVASP-11798.cif,2.83,3.367,mBJ,0.537,-3.17295,,I4_1/amd
JVASP-8007,LuHg,FAILED_JVASP-8007.cif,0.0,0.0,mBJ,0.0,-0.36868,,Pm-3m
JVASP-29676,CdI2,FAILED_JVASP-29676.cif,2.184,3.222,mBJ,1.038,-0.58101,,P3m1
JVASP-28513,MoW2Se6,FAILED_JVASP-28513.cif,1.045,1.307,mBJ,0.262,-0.58665,,R3m
JVASP-22653,Sr3BiN,FAILED_JVASP-22653.cif,0.307,0.898,mBJ,0.591,-1.03456,,Pm-3m
JVASP-7660,Lu2AlSi2,FAILED_JVASP-7660.cif,0.0,0.0,mBJ,0.0,-0.66409,,Immm
JVASP-12521,Hg2ClO,FAILED_JVASP-12521.cif,1.67,2.481,mBJ,0.811,-0.31018,,C2/c
JVASP-29906,TbH2Br,FAILED_JVASP-29906.cif,1.81,3.117,mBJ,1.307,-1.15651,,R-3m
JVASP-15940,NaMnSe2,FAILED_JVASP-15940.cif,0.0,2.159,mBJ,2.159,-0.54533,,P3m1
JVASP-7736,TaRu,FAILED_JVASP-7736.cif,0.0,0.0,mBJ,0.0,-0.27104,,Pm-3m
JVASP-8327,YTiF5,FAILED_JVASP-8327.cif,0.0,0.003,mBJ,0.003,-3.52113,,Immm
JVASP-7696,Na5CuSO2,FAILED_JVASP-7696.cif,1.673,2.248,mBJ,0.575,-1.2722,,P4/mmm
JVASP-8608,Rb2CaH4,FAILED_JVASP-8608.cif,3.369,4.931,mBJ,1.562,-0.45202,,I4/mmm
JVASP-7793,AlTlO2,FAILED_JVASP-7793.cif,2.285,3.272,mBJ,0.987,-2.2901,,Fd-3m
JVASP-12277,UMnSe3,FAILED_JVASP-12277.cif,0.0,0.0,mBJ,0.0,-0.72127,,Cmcm
JVASP-8071,GaCuSe2,FAILED_JVASP-8071.cif,0.087,1.391,mBJ,1.304,-0.47488,,I-42d
JVASP-8736,Er3InN,FAILED_JVASP-8736.cif,0.0,0.0,mBJ,0.0,-1.1056,,Pm-3m
JVASP-9084,NaC,FAILED_JVASP-9084.cif,3.486,5.306,mBJ,1.82,0.09221,,I4_1/acd
JVASP-22633,SiC,FAILED_JVASP-22633.cif,2.06,2.819,mBJ,0.759,-0.24416,,P6_3mc
JVASP-51226,IrPbBr,FAILED_JVASP-51226.cif,0.0,0.105,mBJ,0.105,0.95141,,F-43m
JVASP-12562,BeAlH5,FAILED_JVASP-12562.cif,3.744,5.155,mBJ,1.411,-0.10587,,P2_1
JVASP-8120,CaZnSO,FAILED_JVASP-8120.cif,2.888,4.521,mBJ,1.633,-2.05333,,P6_3mc
JVASP-50129,NaPdO2,FAILED_JVASP-50129.cif,0.0,0.584,mBJ,0.584,-1.01391,,C2/m
JVASP-7661,BaLiP,FAILED_JVASP-7661.cif,0.724,1.488,mBJ,0.764,-1.00186,,P-6m2
JVASP-29731,ZnB2H8,FAILED_JVASP-29731.cif,4.371,6.412,mBJ,2.041,-0.02404,,Pmc2_1
JVASP-51802,RbPH2O4,FAILED_JVASP-51802.cif,5.502,8.25,mBJ,2.748,-1.87981,,P2_1/m
JVASP-8546,InCuS2,FAILED_JVASP-8546.cif,0.019,0.69,mBJ,0.671,-0.54241,,I-42d
JVASP-8818,Sr2H5Rh,FAILED_JVASP-8818.cif,0.651,0.96,mBJ,0.309,-0.60789,,I4mm
JVASP-7794,DyN,FAILED_JVASP-7794.cif,0.117,1.124,mBJ,1.007,-1.92857,,Fm-3m
JVASP-8374,AlFeF5,FAILED_JVASP-8374.cif,0.365,0.341,mBJ,-0.024,-2.98331,,Immm
JVASP-32687,CoSnC4Cl3O4,FAILED_JVASP-32687.cif,2.601,2.775,mBJ,0.174,-0.76328,,R3
JVASP-8659,Rb2SnI6,FAILED_JVASP-8659.cif,0.0,0.489,mBJ,0.489,-0.90222,,Fm-3m
JVASP-8008,Ni2B,FAILED_JVASP-8008.cif,0.0,0.0,mBJ,0.0,-0.24512,,I4/mcm
JVASP-14200,NpCo2Ge2,FAILED_JVASP-14200.cif,0.0,0.0,mBJ,0.0,-0.18496,,I4/mmm
JVASP-8251,MgCrF6,FAILED_JVASP-8251.cif,0.0,0.188,mBJ,0.188,-3.01666,,R-3
JVASP-8121,Ca3AsN,FAILED_JVASP-8121.cif,0.759,1.416,mBJ,0.657,-1.27227,,Pm-3m
JVASP-56248,Dy3CuSiSe7,FAILED_JVASP-56248.cif,1.677,2.156,mBJ,0.479,-1.36511,,P6_3
JVASP-19107,SrTeO4,FAILED_JVASP-19107.cif,2.318,3.546,mBJ,1.228,-1.92673,,Pbcn
JVASP-12956,Na2CS3,FAILED_JVASP-12956.cif,1.28,2.402,mBJ,1.122,-0.57192,,C2/c
JVASP-8703,BC2N,FAILED_JVASP-8703.cif,2.458,3.312,mBJ,0.854,-0.18178,,P222_1
JVASP-7697,CrSi2,FAILED_JVASP-7697.cif,0.37,0.271,mBJ,-0.099,-0.19587,,P6_422
JVASP-8161,ThSO,FAILED_JVASP-8161.cif,1.269,1.792,mBJ,0.523,-3.29307,,P4/nmm
JVASP-52490,ZnCu2O4,FAILED_JVASP-52490.cif,0.622,0.636,mBJ,0.014,-0.84511,,I4_1/a
JVASP-50131,BaNa2O2,FAILED_JVASP-50131.cif,2.83,4.806,mBJ,1.976,-1.86334,,Cmc2_1
JVASP-29039,Te2MoW3Se6,FAILED_JVASP-29039.cif,0.808,0.962,mBJ,0.154,-0.42502,,P3m1
JVASP-15957,RbMnTe2,FAILED_JVASP-15957.cif,0.0,0.0,mBJ,0.0,-0.47896,,I-4m2
JVASP-4337,VS,FAILED_JVASP-4337.cif,0.0,0.0,mBJ,0.0,-0.63798,,P6_3/mmc
JVASP-28576,Te4W3Se2,FAILED_JVASP-28576.cif,0.377,0.461,mBJ,0.084,-0.17291,,P-6m2
JVASP-11415,RbVCu2S4,FAILED_JVASP-11415.cif,1.107,1.124,mBJ,0.017,-0.91575,,Ama2
JVASP-8329,SbN,FAILED_JVASP-8329.cif,1.097,1.828,mBJ,0.731,0.33069,,P2_1
JVASP-7987,BaTe2,FAILED_JVASP-7987.cif,0.613,1.273,mBJ,0.66,-1.26439,,I4/mcm
JVASP-5008,Ce2SbO2,FAILED_JVASP-5008.cif,0.0,0.001,mBJ,0.001,-2.82714,,I4/mmm
JVASP-22582,ZnS,FAILED_JVASP-22582.cif,2.12,3.625,mBJ,1.505,-0.88421,,R3m
JVASP-7739,Hg,FAILED_JVASP-7739.cif,0.0,0.0,mBJ,0.0,0.27022,,R-3m
JVASP-53581,MgPS3,FAILED_JVASP-53581.cif,3.123,3.942,mBJ,0.819,-0.85,,C2/m
JVASP-50887,Na4NpO5,FAILED_JVASP-50887.cif,0.77,2.389,mBJ,1.619,-2.46918,,I4/m
JVASP-7698,NdAu,FAILED_JVASP-7698.cif,0.0,0.0,mBJ,0.0,-0.83653,,Pm-3m
JVASP-15939,LiMnSe2,FAILED_JVASP-15939.cif,0.0,0.0,mBJ,0.0,-0.57608,,P3m1
JVASP-7988,TlF,FAILED_JVASP-7988.cif,2.244,3.169,mBJ,0.925,-1.80431,,Fm-3m
JVASP-50077,Li5CuSO2,FAILED_JVASP-50077.cif,2.489,2.672,mBJ,0.183,-1.60279,,P4/mmm
JVASP-15943,VTe,FAILED_JVASP-15943.cif,0.0,0.0,mBJ,0.0,-0.14009,,P6_3/mmc
JVASP-7662,LiInSe2,FAILED_JVASP-7662.cif,0.784,1.551,mBJ,0.767,-0.8397,,R-3m
JVASP-8294,TaF5,FAILED_JVASP-8294.cif,3.548,4.865,mBJ,1.317,-2.99237,,Immm
JVASP-8375,LiNi2O4,FAILED_JVASP-8375.cif,0.0,0.522,mBJ,0.522,-1.21053,,P2/m
JVASP-29509,Cr3O8,FAILED_JVASP-29509.cif,0.0,0.0,mBJ,0.0,-1.75388,,C2/m
JVASP-7795,TlGaO2,FAILED_JVASP-7795.cif,2.217,3.101,mBJ,0.884,-1.34974,,Fd-3m
JVASP-56824,HoSi2Ir2,FAILED_JVASP-56824.cif,0.0,0.0,mBJ,0.0,-1.02716,,I4/mmm
JVASP-28577,Te4W3S2,FAILED_JVASP-28577.cif,0.014,0.043,mBJ,0.029,-0.23959,,Amm2
JVASP-52377,PNO,FAILED_JVASP-52377.cif,5.298,6.986,mBJ,1.688,-1.16147,,I2_12_12_1
JVASP-8162,RbScO2,FAILED_JVASP-8162.cif,3.399,4.563,mBJ,1.164,-2.94585,,R-3m
JVASP-5308,MnO2,FAILED_JVASP-5308.cif,0.676,2.93,HSE,2.254,-1.73873,,P-3m1
JVASP-8819,NbO2F,FAILED_JVASP-8819.cif,1.641,2.214,mBJ,0.573,-2.74455,,C2/c
JVASP-8550,InNi3,FAILED_JVASP-8550.cif,0.0,0.0,mBJ,0.0,-0.04309,,Pm-3m
JVASP-7663,SrS,FAILED_JVASP-7663.cif,1.777,2.767,mBJ,0.99,-2.08663,,Pm-3m
JVASP-8122,NaRuO2,FAILED_JVASP-8122.cif,0.0,0.0,mBJ,0.0,-1.29325,,R-3m
JVASP-7699,PrAu,FAILED_JVASP-7699.cif,0.0,0.0,mBJ,0.0,-0.81879,,Pm-3m
JVASP-7917,Co3Sn2S2,FAILED_JVASP-7917.cif,0.0,0.211,mBJ,0.211,-0.38094,,R-3m
JVASP-12603,ErH3O3,FAILED_JVASP-12603.cif,3.809,6.152,mBJ,2.343,-2.05906,,P6_3/m
JVASP-8073,ScSnPd2,FAILED_JVASP-8073.cif,0.0,0.0,mBJ,0.0,-0.86248,,Fm-3m
JVASP-7740,CrSi2,FAILED_JVASP-7740.cif,0.37,0.271,mBJ,-0.099,-0.19587,,P6_222
JVASP-7664,Sc,FAILED_JVASP-7664.cif,0.0,0.0,mBJ,0.0,0.10873,,Im-3m
JVASP-12522,HgI2O6,FAILED_JVASP-12522.cif,2.74,4.023,mBJ,1.283,-0.37071,,P2_1
JVASP-8704,Bi2CO5,FAILED_JVASP-8704.cif,1.231,2.753,mBJ,1.522,-1.34884,,Imm2
JVASP-4349,HgTe,FAILED_JVASP-4349.cif,0.0,0.0,mBJ,0.0,0.12306,,Fm-3m
JVASP-29963,InPF3,FAILED_JVASP-29963.cif,0.214,1.112,mBJ,0.898,-1.52632,,R3m
JVASP-53582,YbPr2S4,FAILED_JVASP-53582.cif,2.049,2.668,mBJ,0.619,-2.30754,,I-42d
JVASP-7974,InSe,FAILED_JVASP-7974.cif,0.23,1.426,mBJ,1.196,-0.50463,,P6_3/mmc
JVASP-12563,BeAlH5,FAILED_JVASP-12563.cif,3.868,5.324,mBJ,1.456,-0.10842,,C2/c
JVASP-51342,ZrH,FAILED_JVASP-51342.cif,0.0,0.0,mBJ,0.0,-0.33518,,I-4m2
JVASP-11416,Li3AuS2,FAILED_JVASP-11416.cif,2.126,2.984,mBJ,0.858,-1.14767,,Ibam
JVASP-5539,Sm4Cl6O,FAILED_JVASP-5539.cif,0.0,0.0,mBJ,0.0,-2.10954,,P6_3mc
JVASP-7665,SrTe,FAILED_JVASP-7665.cif,0.64,1.234,mBJ,0.594,-1.61914,,Pm-3m
JVASP-7700,SmAu,FAILED_JVASP-7700.cif,0.0,0.0,mBJ,0.0,-0.87051,,Pm-3m
JVASP-8777,Ca2NF,FAILED_JVASP-8777.cif,1.958,3.146,mBJ,1.188,-2.28968,,I4_1/amd
JVASP-51395,GaHO2,FAILED_JVASP-51395.cif,3.587,5.325,mBJ,1.738,-1.65505,,Pnma
JVASP-7822,CaCdGe,FAILED_JVASP-7822.cif,0.0,0.2,mBJ,0.2,-0.5594,,P-62m
JVASP-8003,CdS,FAILED_JVASP-8003.cif,0.993,2.52,mBJ,1.527,-0.67041,,F-43m
JVASP-8551,ThNiSn,FAILED_JVASP-8551.cif,0.323,0.372,mBJ,0.049,-0.71311,,F-43m
JVASP-50888,BaYBr5,FAILED_JVASP-50888.cif,3.125,3.828,mBJ,0.703,-2.11186,,C2/c
JVASP-7869,Sr2MnO4,FAILED_JVASP-7869.cif,0.0,0.0,mBJ,0.0,-2.69991,,I4/mmm
JVASP-8376,LiCo2O4,FAILED_JVASP-8376.cif,0.0,0.0,mBJ,0.0,-1.43062,,P2/m
JVASP-12957,ThSnI6,FAILED_JVASP-12957.cif,1.957,1.89,mBJ,-0.067,-0.9555,,P-31c
JVASP-7918,USnRu,FAILED_JVASP-7918.cif,0.0,0.0,mBJ,0.0,-0.26385,,P-62m
JVASP-8074,Co2B,FAILED_JVASP-8074.cif,0.0,0.0,mBJ,0.0,-0.20944,,I4/mcm
JVASP-32932,NbBr3O,FAILED_JVASP-32932.cif,1.868,2.426,mBJ,0.558,-1.41733,,P-42_1m
JVASP-311,Ti2O,FAILED_JVASP-311.cif,0.0,0.0,mBJ,0.0,-1.95529,,P-3m1
JVASP-260,PbS,FAILED_JVASP-260.cif,1.293,2.03,mBJ,0.737,-0.65596,,I4/mmm
JVASP-53584,YbSm2S4,FAILED_JVASP-53584.cif,2.091,2.775,mBJ,0.684,-2.31716,,I-42d
JVASP-8004,CaC2,FAILED_JVASP-8004.cif,1.444,2.621,mBJ,1.177,-0.1769,,I4/mmm
JVASP-9119,NaO,FAILED_JVASP-9119.cif,1.937,4.065,mBJ,2.128,-1.26053,,P-62m
JVASP-8705,Mg2H2O3,FAILED_JVASP-8705.cif,4.068,5.21,HSE,1.142,-2.15606,,P-3m1
JVASP-7823,TbSbPt,FAILED_JVASP-7823.cif,0.0,0.324,mBJ,0.324,-1.21674,,F-43m
JVASP-47845,Li3FeSiO5,FAILED_JVASP-47845.cif,0.003,0.0,mBJ,-0.003,-2.23278,,P-1
JVASP-8252,ZnCrF6,FAILED_JVASP-8252.cif,0.0,0.124,mBJ,0.124,-2.50941,,R-3
JVASP-7701,TbAu,FAILED_JVASP-7701.cif,0.0,0.0,mBJ,0.0,-0.92026,,Pm-3m
JVASP-7870,MnO,FAILED_JVASP-7870.cif,0.0,0.0,mBJ,0.0,-1.31371,,Fm-3m
JVASP-4355,SmFe5,FAILED_JVASP-4355.cif,0.0,0.0,mBJ,0.0,-0.02899,,P6/mmm
JVASP-29046,Te2MoWS2,FAILED_JVASP-29046.cif,0.064,0.187,mBJ,0.123,-0.42896,,P3m1
JVASP-8163,LiTlO2,FAILED_JVASP-8163.cif,0.457,1.356,mBJ,0.899,-1.24819,,I4_1/amd
JVASP-32689,CSNF5,FAILED_JVASP-32689.cif,4.18,7.673,mBJ,3.493,-0.87194,,Pnma
JVASP-32778,BiSeBr,FAILED_JVASP-32778.cif,1.584,2.233,mBJ,0.649,-0.56989,,Pnma
JVASP-60701,ZnWO4,FAILED_JVASP-60701.cif,3.149,3.997,mBJ,0.848,-2.12105,,C2/c
JVASP-29408,Pb2SO5,FAILED_JVASP-29408.cif,3.218,4.76,mBJ,1.542,-1.4844,,C2/m
JVASP-8296,TiAlF5,FAILED_JVASP-8296.cif,0.0,0.0,mBJ,0.0,-3.34551,,Immm
JVASP-7994,HgO2,FAILED_JVASP-7994.cif,0.14,1.472,mBJ,1.332,0.089,,C2/m
JVASP-19109,BaGa4S7,FAILED_JVASP-19109.cif,2.454,3.392,mBJ,0.938,-1.06713,,Pmn2_1
JVASP-50516,SrLu2O4,FAILED_JVASP-50516.cif,3.481,5.155,mBJ,1.674,-3.68864,,Cmcm
JVASP-12566,SnH8N2Cl6,FAILED_JVASP-12566.cif,2.091,3.484,mBJ,1.393,-0.71444,,Fm-3m
JVASP-7702,TiAu,FAILED_JVASP-7702.cif,0.0,0.0,mBJ,0.0,-0.33874,,Pm-3m
JVASP-7871,NiO,FAILED_JVASP-7871.cif,0.0,0.0,mBJ,0.0,-0.63415,,Fm-3m
JVASP-13025,Ga4GeO8,FAILED_JVASP-13025.cif,2.235,4.056,mBJ,1.821,-1.93993,,C2/m
JVASP-51397,V2Zn2O7,FAILED_JVASP-51397.cif,2.041,2.459,mBJ,0.418,-2.15106,,C2/m
JVASP-7824,TmSbPt,FAILED_JVASP-7824.cif,0.0,0.134,mBJ,0.134,-1.21386,,F-43m
JVASP-56386,YbSbPt,FAILED_JVASP-56386.cif,0.0,0.0,mBJ,0.0,-0.99292,,F-43m
JVASP-19110,MgSiO3,FAILED_JVASP-19110.cif,4.923,6.51,mBJ,1.587,-3.0134,,C2/c
JVASP-8165,AgNO3,FAILED_JVASP-8165.cif,1.6,2.627,mBJ,1.027,-0.25181,,R3m
JVASP-47882,Li3Co2Si2O8,FAILED_JVASP-47882.cif,0.012,0.0,mBJ,-0.012,-2.13366,,P1
JVASP-28435,MnAl2S4,FAILED_JVASP-28435.cif,0.0,0.0,mBJ,0.0,-0.88991,,R3m
JVASP-8125,NaCuSe,FAILED_JVASP-8125.cif,0.234,1.342,mBJ,1.108,-0.64082,,P4/nmm
JVASP-29631,CdI2,FAILED_JVASP-29631.cif,2.19,3.385,mBJ,1.195,-0.58144,,P3m1
JVASP-51229,NaSrNb2,FAILED_JVASP-51229.cif,0.0,0.0,mBJ,0.0,1.47334,,Fm-3m
JVASP-49812,CdAg2O4,FAILED_JVASP-49812.cif,0.604,0.876,mBJ,0.272,-0.37348,,I4_1/amd
JVASP-8377,LiMn2O4,FAILED_JVASP-8377.cif,0.0,0.0,mBJ,0.0,-1.93732,,P2/m
JVASP-8706,YAuO2,FAILED_JVASP-8706.cif,2.764,3.721,mBJ,0.957,-2.44528,,P6_3/mmc
JVASP-51309,AlAgB,FAILED_JVASP-51309.cif,0.0,0.0,mBJ,0.0,0.7998,,F-43m
JVASP-22346,V4GeS8,FAILED_JVASP-22346.cif,0.0,0.0,mBJ,0.0,-0.94606,,F-43m
JVASP-56312,TlPd3,FAILED_JVASP-56312.cif,0.0,0.0,mBJ,0.0,-0.16682,,Pm-3m
JVASP-30201,Mg2SnO4,FAILED_JVASP-30201.cif,3.017,4.655,mBJ,1.638,-2.45439,,Pbam
JVASP-52873,H2S,FAILED_JVASP-52873.cif,4.55,5.562,mBJ,1.012,-0.13818,,Pbcm
JVASP-52306,Sc2TiO5,FAILED_JVASP-52306.cif,3.15,3.65,mBJ,0.5,-3.60091,,Cmc2_1
JVASP-59630,Rb2FeCuC6N6,FAILED_JVASP-59630.cif,0.0,0.0,mBJ,0.0,-0.05322,,Fm-3m
JVASP-19111,K2B2S7,FAILED_JVASP-19111.cif,2.573,3.631,mBJ,1.058,-0.74763,,C2/c
JVASP-33314,ZnH8C2S2N6,FAILED_JVASP-33314.cif,4.305,5.275,mBJ,0.97,-0.08745,,P2_1/c
JVASP-8297,AlSnF5,FAILED_JVASP-8297.cif,3.94,4.83,mBJ,0.89,-3.11404,,Immm
JVASP-4400,TlSn,FAILED_JVASP-4400.cif,0.0,0.0,mBJ,0.0,0.04115,,P4/mmm
JVASP-12663,V2Pb3O8,FAILED_JVASP-12663.cif,2.9,3.072,mBJ,0.172,-2.04042,,R-3m
JVASP-8822,PHN2,FAILED_JVASP-8822.cif,4.713,6.133,mBJ,1.42,-0.3773,,C2
JVASP-50984,PrH3O3,FAILED_JVASP-50984.cif,3.753,6.314,mBJ,2.561,-2.00218,,P6_3/m
JVASP-53592,CaHo2Se4,FAILED_JVASP-53592.cif,1.142,1.787,mBJ,0.645,-1.99659,,P2/m
JVASP-12605,CoTePb2O6,FAILED_JVASP-12605.cif,0.0,0.0,mBJ,0.0,-1.09708,,Fm-3m
JVASP-49813,Sc2O3,FAILED_JVASP-49813.cif,4.083,5.053,mBJ,0.97,-3.71936,,R-3
JVASP-12665,VInO4,FAILED_JVASP-12665.cif,2.973,3.542,mBJ,0.569,-2.17445,,Cmcm
JVASP-51343,HBr,FAILED_JVASP-51343.cif,4.665,6.026,mBJ,1.361,-0.18506,,Cmc2_1
JVASP-13026,Rb2IN3,FAILED_JVASP-13026.cif,4.277,5.284,mBJ,1.007,-0.68349,,P4/mbm
JVASP-7921,Tm3InN,FAILED_JVASP-7921.cif,0.0,0.0,mBJ,0.0,-1.10968,,Pm-3m
JVASP-8823,CuCN,FAILED_JVASP-8823.cif,2.633,2.596,mBJ,-0.037,0.30334,,R3m
JVASP-21298,MgCuSi2O6,FAILED_JVASP-21298.cif,0.0,0.0,mBJ,0.0,-2.44553,,C2/c
JVASP-15970,Cr3SnN,FAILED_JVASP-15970.cif,0.0,0.0,mBJ,0.0,-0.14854,,Pm-3m
JVASP-28651,Te2Mo3WSe4S2,FAILED_JVASP-28651.cif,0.194,0.105,mBJ,-0.089,-0.53196,,P3m1
JVASP-8253,CoO2,FAILED_JVASP-8253.cif,0.0,0.0,mBJ,0.0,-0.98197,,C2
JVASP-54726,YH3O3,FAILED_JVASP-54726.cif,3.897,6.337,mBJ,2.44,-2.05654,,P6_3/m
JVASP-33315,B5H9,FAILED_JVASP-33315.cif,5.505,6.756,mBJ,1.251,-0.02945,,I4mm
JVASP-33058,HOF,FAILED_JVASP-33058.cif,3.198,4.778,mBJ,1.58,-0.42206,,P2_12_12_1
JVASP-51230,BiMoRh,FAILED_JVASP-51230.cif,0.0,0.0,mBJ,0.0,0.55353,,F-43m
JVASP-7668,Sr3Al2Ge2,FAILED_JVASP-7668.cif,0.0,0.0,mBJ,0.0,-0.60975,,Immm
JVASP-8298,ZnNi2N2,FAILED_JVASP-8298.cif,0.0,0.0,mBJ,0.0,0.3886,,P-4m2
JVASP-29785,AlHO2,FAILED_JVASP-29785.cif,4.716,6.495,mBJ,1.779,-2.29297,,P1
JVASP-8020,Nd2O3,FAILED_JVASP-8020.cif,3.96,5.315,mBJ,1.355,-3.58378,,P-3m1
JVASP-21299,CaSi2SnO6,FAILED_JVASP-21299.cif,3.148,4.311,mBJ,1.163,-2.676,,C2/c
JVASP-12023,AgI,FAILED_JVASP-12023.cif,1.26,2.703,mBJ,1.443,-0.20438,,P4/nmm
JVASP-13304,Pr2CdSe4,FAILED_JVASP-13304.cif,1.0,2.062,mBJ,1.062,-1.50555,,I-42d
JVASP-50889,NaSmO2,FAILED_JVASP-50889.cif,3.987,5.66,mBJ,1.673,-2.92942,,I4_1/amd
JVASP-13112,Ca2Pb,FAILED_JVASP-13112.cif,0.068,0.161,mBJ,0.093,-0.63665,,Pnma
JVASP-5629,Ta3SeI7,FAILED_JVASP-5629.cif,0.55,0.877,mBJ,0.327,-0.52987,,P6_3mc
JVASP-50518,TiO2,FAILED_JVASP-50518.cif,2.347,2.786,mBJ,0.439,-3.13982,,P6_3mc
JVASP-45318,Na6ZnS4,FAILED_JVASP-45318.cif,2.237,4.502,mBJ,2.265,-1.17512,,P6_3mc
JVASP-12524,InSn2I5,FAILED_JVASP-12524.cif,1.485,1.759,mBJ,0.274,-0.525,,I4/mcm
JVASP-57951,YCu3Sn4O12,FAILED_JVASP-57951.cif,0.0,0.0,mBJ,0.0,-1.64706,,Im-3
JVASP-8643,MoO2,FAILED_JVASP-8643.cif,0.0,0.0,mBJ,0.0,-1.74938,,R-3m
JVASP-50839,YZr5O11,FAILED_JVASP-50839.cif,0.68,3.99,mBJ,3.31,-3.60063,,Pm
JVASP-13113,Tl2ZnI4,FAILED_JVASP-13113.cif,2.798,3.645,mBJ,0.847,-0.6462,,P2_1
JVASP-8126,NaCuTe,FAILED_JVASP-8126.cif,0.754,2.432,mBJ,1.678,-0.50624,,P4/nmm
JVASP-7799,Ba2Zn3As2O2,FAILED_JVASP-7799.cif,0.256,1.165,mBJ,0.909,-1.3852,,I4/mmm
JVASP-53229,KCaNb2O6F,FAILED_JVASP-53229.cif,2.824,3.191,mBJ,0.367,-2.9951,,Imma
JVASP-8336,CaFe2N2,FAILED_JVASP-8336.cif,0.0,0.0,mBJ,0.0,-0.11652,,P-4m2
JVASP-49151,Y3Sb4Au3,FAILED_JVASP-49151.cif,0.621,0.649,mBJ,0.028,-0.84694,,I-43d
JVASP-29411,Tm2Te5O13,FAILED_JVASP-29411.cif,3.028,4.588,mBJ,1.56,-1.89108,,P-1
JVASP-8503,Tm3SnC,FAILED_JVASP-8503.cif,0.0,0.0,mBJ,0.0,1.47774,,Pm-3m
JVASP-7670,BaSe,FAILED_JVASP-7670.cif,1.258,1.933,mBJ,0.675,-2.00238,,Pm-3m
JVASP-13114,KPt2S3,FAILED_JVASP-13114.cif,1.317,1.727,mBJ,0.41,-0.73416,,R-3m
JVASP-56991,DyTlSe2,FAILED_JVASP-56991.cif,1.308,1.791,mBJ,0.483,-1.44032,,R-3m
JVASP-7922,BaMn2P2,FAILED_JVASP-7922.cif,0.0,0.0,mBJ,0.0,-0.7922,,I4/mmm
JVASP-50628,Bi3O4F,FAILED_JVASP-50628.cif,0.82,2.278,mBJ,1.458,-1.5576,,P2/c
JVASP-21219,Pr2Sn2O7,FAILED_JVASP-21219.cif,2.828,4.32,mBJ,1.492,-2.71059,,Fd-3m
JVASP-8432,InAgSe2,FAILED_JVASP-8432.cif,0.084,1.002,mBJ,0.918,-0.38146,,I-42d
JVASP-9125,PbF2,FAILED_JVASP-9125.cif,4.441,5.552,mBJ,1.111,-2.51033,,Pnma
JVASP-54727,MoH4O5,FAILED_JVASP-54727.cif,2.661,2.902,mBJ,0.241,-1.39603,,P1
JVASP-18993,Sb2Se3,FAILED_JVASP-18993.cif,0.875,1.454,mBJ,0.579,-0.26843,,Pnma
JVASP-21220,Sm2Zr2O7,FAILED_JVASP-21220.cif,3.302,4.443,mBJ,1.141,-3.72591,,Fd-3m
JVASP-7923,ZnO,FAILED_JVASP-7923.cif,0.872,2.363,mBJ,1.491,-1.58593,,F-43m
JVASP-12525,Hg3S2Cl2,FAILED_JVASP-12525.cif,1.907,3.424,mBJ,1.517,-0.2764,,I2_13
JVASP-12666,VBiO4,FAILED_JVASP-12666.cif,2.176,2.404,mBJ,0.228,-2.13335,,I4_1/a
JVASP-28436,Cu2WSe4,FAILED_JVASP-28436.cif,0.887,1.438,mBJ,0.551,-0.31048,,I-42m
JVASP-13027,LiBeN,FAILED_JVASP-13027.cif,2.828,3.912,mBJ,1.084,-1.05842,,P2_1/c
JVASP-52310,Lu2Pt2O7,FAILED_JVASP-52310.cif,1.74,1.849,mBJ,0.109,-2.27833,,Fd-3m
JVASP-50841,MgGa2O4,FAILED_JVASP-50841.cif,2.571,4.506,mBJ,1.935,-2.31376,,R3m
JVASP-49169,AgAsS2,FAILED_JVASP-49169.cif,1.245,1.988,mBJ,0.743,-0.15836,,R-3
JVASP-7878,CoO,FAILED_JVASP-7878.cif,0.0,0.0,mBJ,0.0,-0.75155,,P6_3mc
JVASP-55521,Si3Ru2,FAILED_JVASP-55521.cif,0.349,0.308,mBJ,-0.041,-0.48938,,P-4c2
JVASP-45322,SrP6Pt4,FAILED_JVASP-45322.cif,0.445,0.648,mBJ,0.203,-0.83105,,C2/c
JVASP-19598,V3Te4,FAILED_JVASP-19598.cif,0.0,0.0,mBJ,0.0,-0.30037,,C2/m
JVASP-44414,Li2Mn3WO8,FAILED_JVASP-44414.cif,0.0,0.0,mBJ,0.0,-2.02474,,Cc
JVASP-7671,CdSe,FAILED_JVASP-7671.cif,0.499,2.057,mBJ,1.558,-0.58691,,P6_3mc
JVASP-13028,PdSe6Cl2,FAILED_JVASP-13028.cif,1.01,1.562,mBJ,0.552,-0.18229,,P2_1/c
JVASP-12528,GeBi2O5,FAILED_JVASP-12528.cif,2.445,4.156,mBJ,1.711,-1.56182,,Cmc2_1
JVASP-11417,Sn3N4,FAILED_JVASP-11417.cif,0.403,1.287,mBJ,0.884,0.126,,Fd-3m
JVASP-11128,SmAsO4,FAILED_JVASP-11128.cif,3.936,5.379,mBJ,1.443,-2.50535,,I4_1/a
JVASP-8552,TlInTe2,FAILED_JVASP-8552.cif,0.545,0.988,mBJ,0.443,-0.36874,,I4/mcm
JVASP-22654,CuI,FAILED_JVASP-22654.cif,1.647,3.146,mBJ,1.499,-0.14485,,P-3m1
JVASP-8644,LiNiO2,FAILED_JVASP-8644.cif,0.0,0.381,mBJ,0.381,-1.40939,,Cm
JVASP-8127,K2Sn2O3,FAILED_JVASP-8127.cif,1.21,2.583,mBJ,1.373,-1.61007,,R-3m
JVASP-8708,HoSnAu,FAILED_JVASP-8708.cif,0.068,0.108,mBJ,0.04,-0.86862,,F-43m
JVASP-50519,Sm3NbO7,FAILED_JVASP-50519.cif,2.658,3.16,mBJ,0.502,-3.48053,,C222_1
JVASP-52585,AgI,FAILED_JVASP-52585.cif,1.259,2.87,mBJ,1.611,-0.20334,,F-43m
JVASP-29511,CuCClO,FAILED_JVASP-29511.cif,2.296,2.752,mBJ,0.456,-0.59895,,Pmn2_1
JVASP-8337,TiZnF6,FAILED_JVASP-8337.cif,4.079,4.018,mBJ,-0.061,-3.11898,,R-3
JVASP-350,ZrO2,FAILED_JVASP-350.cif,4.03,4.6,mBJ,0.57,-3.6739,,P4_2/nmc
JVASP-55522,PPbS3,FAILED_JVASP-55522.cif,2.248,2.889,mBJ,0.641,-0.49534,,P2_1/c
JVASP-12568,SmH3C3O6,FAILED_JVASP-12568.cif,4.315,6.27,mBJ,1.955,-1.51768,,R3m