material_id,formula,cif_path,pbe_bandgap,hse_bandgap,gap_type,correction,formation_energy,total_energy,spacegroup
JVASP-25286,H,FAILED_JVASP-25286.cif,9.03,14.23,mBJ,5.2,-0.0,,I4/mmm
JVASP-25151,Si,FAILED_JVASP-25151.cif,0.0,0.066,mBJ,0.066,0.16663,,Ia-3
JVASP-39230,KBeO3,FAILED_JVASP-39230.cif,0.0,0.0,mBJ,0.0,-1.04231,,Pm-3m
JVASP-38530,Li3Nb,FAILED_JVASP-38530.cif,0.0,0.0,mBJ,0.0,0.688,,I4/mmm
JVASP-39372,Ni3H,FAILED_JVASP-39372.cif,0.0,0.0,mBJ,0.0,0.52466,,Fm-3m
JVASP-59552,SmF3,FAILED_JVASP-59552.cif,5.604,7.358,mBJ,1.754,-4.15253,,P6_3/mcm
JVASP-40794,TaAlPt,FAILED_JVASP-40794.cif,0.0,0.0,mBJ,0.0,-0.06512,,F-43m
JVASP-38261,Rb3Ac,FAILED_JVASP-38261.cif,0.0,0.0,mBJ,0.0,0.42283,,I4/mmm
JVASP-38221,Rb3Na,FAILED_JVASP-38221.cif,0.0,0.0,mBJ,0.0,0.01336,,Pm-3m
JVASP-40299,Sr2BiAu,FAILED_JVASP-40299.cif,0.617,0.802,mBJ,0.185,-0.9694,,Fm-3m
JVASP-40833,HfBiRh,FAILED_JVASP-40833.cif,0.0,0.0,mBJ,0.0,0.02845,,F-43m
JVASP-38333,NdDy3,FAILED_JVASP-38333.cif,0.0,0.0,mBJ,0.0,0.01553,,Pm-3m
JVASP-41568,LuSbPd2,FAILED_JVASP-41568.cif,0.0,0.0,mBJ,0.0,-0.8498,,Fm-3m
JVASP-40429,K2SbAu,FAILED_JVASP-40429.cif,1.051,1.775,mBJ,0.724,-0.58025,,Cmcm
JVASP-19588,Nb3Si,FAILED_JVASP-19588.cif,0.0,0.0,mBJ,0.0,-0.19101,,Pm-3m
JVASP-59553,Fe15Co,FAILED_JVASP-59553.cif,0.0,0.0,mBJ,0.0,0.00252,,Pm-3m
JVASP-39469,Re3Sb,FAILED_JVASP-39469.cif,0.0,0.0,mBJ,0.0,0.69319,,Fm-3m
JVASP-32145,IrC2,FAILED_JVASP-32145.cif,0.0,0.0,mBJ,0.0,1.38197,,I4/mmm
JVASP-16351,PrPPd,FAILED_JVASP-16351.cif,0.0,0.0,mBJ,0.0,-1.26019,,P6_3/mmc
JVASP-25076,Tm,FAILED_JVASP-25076.cif,0.0,0.0,mBJ,0.0,0.02418,,Fm-3m
JVASP-40528,LiCa2Ga,FAILED_JVASP-40528.cif,0.0,0.0,mBJ,0.0,-0.31798,,Fm-3m
JVASP-40011,LuTc2W,FAILED_JVASP-40011.cif,0.0,0.0,mBJ,0.0,-0.24395,,Fm-3m
JVASP-25152,C,FAILED_JVASP-25152.cif,0.458,0.511,mBJ,0.053,0.00013,,R-3m
JVASP-25353,Os,FAILED_JVASP-25353.cif,0.0,0.0,mBJ,0.0,0.13481,,Fm-3m
JVASP-39433,HoErZn2,FAILED_JVASP-39433.cif,0.0,0.0,mBJ,0.0,-0.38466,,Fm-3m
JVASP-41515,Tm2OsPd,FAILED_JVASP-41515.cif,0.0,0.0,mBJ,0.0,-0.72079,,Fm-3m
JVASP-26384,HoBi2IO4,FAILED_JVASP-26384.cif,1.538,2.75,mBJ,1.212,-2.10279,,P4/mmm
JVASP-40012,LuTaRu2,FAILED_JVASP-40012.cif,0.0,0.0,mBJ,0.0,-0.53858,,Fm-3m
JVASP-15864,ZrAs,FAILED_JVASP-15864.cif,0.0,0.0,mBJ,0.0,-1.11593,,Fm-3m
JVASP-35532,Th2Fe2Si2C,FAILED_JVASP-35532.cif,0.0,0.0,mBJ,0.0,-0.64648,,C2/m
JVASP-25126,Tm,FAILED_JVASP-25126.cif,0.0,0.0,mBJ,0.0,0.14599,,Im-3m
JVASP-40246,Ba2Sc2O5,FAILED_JVASP-40246.cif,1.883,3.68,mBJ,1.797,-3.36517,,P4/mmm
JVASP-40795,NbAlPt,FAILED_JVASP-40795.cif,0.0,0.0,mBJ,0.0,-0.1064,,F-43m
JVASP-28551,Te2Mo2WS4,FAILED_JVASP-28551.cif,0.075,0.0,mBJ,-0.075,-0.62346,,R3m
JVASP-26385,Sr2I2O,FAILED_JVASP-26385.cif,3.35,4.465,mBJ,1.115,-2.31591,,Ibam
JVASP-40117,AgBr,FAILED_JVASP-40117.cif,1.031,2.985,mBJ,1.954,-0.30077,,F-43m
JVASP-38423,PrSm3,FAILED_JVASP-38423.cif,0.0,0.0,mBJ,0.0,0.00971,,Pm-3m
JVASP-38484,Hf3Tl,FAILED_JVASP-38484.cif,0.0,0.0,mBJ,0.0,0.01395,,I4/mmm
JVASP-16438,ScAg,FAILED_JVASP-16438.cif,0.0,0.0,mBJ,0.0,-0.31492,,Pm-3m
JVASP-35488,NpGa5Co,FAILED_JVASP-35488.cif,0.0,0.0,mBJ,0.0,-0.26041,,P4/mmm
JVASP-25376,Na,FAILED_JVASP-25376.cif,0.0,0.0,mBJ,0.0,0.00015,,R-3m
JVASP-38263,Rb3Dy,FAILED_JVASP-38263.cif,0.0,0.0,mBJ,0.0,0.58863,,Pm-3m
JVASP-26455,Be2BO3F,FAILED_JVASP-26455.cif,6.295,9.771,mBJ,3.476,-3.00177,,R-3c
JVASP-54864,Np3Sn,FAILED_JVASP-54864.cif,0.0,0.0,mBJ,0.0,-0.04244,,Pm-3m
JVASP-816,Al,FAILED_JVASP-816.cif,0.0,0.0,mBJ,0.0,-0.0,,Fm-3m
JVASP-25355,Rb,FAILED_JVASP-25355.cif,0.0,0.0,mBJ,0.0,-0.00048,,R-3m
JVASP-39470,Re3Mo,FAILED_JVASP-39470.cif,0.0,0.0,mBJ,0.0,0.11277,,I4/mmm
JVASP-41569,TiGaRu2,FAILED_JVASP-41569.cif,0.0,0.0,mBJ,0.0,-0.59298,,Fm-3m
JVASP-40056,Li2NdAl,FAILED_JVASP-40056.cif,0.0,0.0,mBJ,0.0,-0.21786,,Fm-3m
JVASP-38335,RbBeO3,FAILED_JVASP-38335.cif,0.0,0.0,mBJ,0.0,-0.89963,,Pm-3m
JVASP-25110,Se,FAILED_JVASP-25110.cif,0.0,0.0,mBJ,0.0,0.16583,,Cmcm
JVASP-38650,NaTm3,FAILED_JVASP-38650.cif,0.0,0.0,mBJ,0.0,0.30599,,Fm-3m
JVASP-38222,Rb3Nb,FAILED_JVASP-38222.cif,0.0,0.0,mBJ,0.0,1.10713,,Fm-3m
JVASP-39845,MgAlIr2,FAILED_JVASP-39845.cif,0.0,0.0,mBJ,0.0,-0.75138,,Fm-3m
JVASP-25127,Ca,FAILED_JVASP-25127.cif,0.0,0.0,mBJ,0.0,0.3793,,Pm-3m
JVASP-25154,Tb,FAILED_JVASP-25154.cif,0.0,0.0,mBJ,0.0,0.01596,,P6_3/mmc
JVASP-28870,WSeS,FAILED_JVASP-28870.cif,0.521,1.006,mBJ,0.485,-0.70628,,C2/m
JVASP-25377,Mg,FAILED_JVASP-25377.cif,0.0,0.0,mBJ,0.0,0.00688,,P6_3/mmc
JVASP-40057,Li2NdTl,FAILED_JVASP-40057.cif,0.0,0.0,mBJ,0.0,-0.2733,,Fm-3m
JVASP-39233,Lu2RuAu,FAILED_JVASP-39233.cif,0.0,0.0,mBJ,0.0,-0.73338,,Fm-3m
JVASP-40796,ZrGePt,FAILED_JVASP-40796.cif,0.0,0.0,mBJ,0.0,-0.43002,,F-43m
JVASP-39056,SmMn4Al8,FAILED_JVASP-39056.cif,0.0,0.0,mBJ,0.0,-0.32656,,I4/mmm
JVASP-14147,B2O3,FAILED_JVASP-14147.cif,6.541,9.189,mBJ,2.648,-2.53251,,P3_121
JVASP-58359,ScUS3,FAILED_JVASP-58359.cif,0.0,0.0,mBJ,0.0,-1.83927,,Cmcm
JVASP-39970,MgTaOs2,FAILED_JVASP-39970.cif,0.0,0.0,mBJ,0.0,-0.25434,,Fm-3m
JVASP-16272,PrAs,FAILED_JVASP-16272.cif,0.0,0.0,mBJ,0.0,-1.55276,,Fm-3m
JVASP-40582,SmMgZn2,FAILED_JVASP-40582.cif,0.0,0.0,mBJ,0.0,-0.37642,,Fm-3m
JVASP-16521,ScGaNi2,FAILED_JVASP-16521.cif,0.0,0.0,mBJ,0.0,-0.59593,,Fm-3m
JVASP-25061,Hf,FAILED_JVASP-25061.cif,0.0,0.0,mBJ,0.0,0.17424,,Im-3m
JVASP-25021,K5AuI2O2,FAILED_JVASP-25021.cif,2.237,3.366,mBJ,1.129,-1.40733,,Pbam
JVASP-1029,Ti,FAILED_JVASP-1029.cif,0.0,0.0,mBJ,0.0,0.0,,P6/mmm
JVASP-25621,LiFe2F6,FAILED_JVASP-25621.cif,0.0,0.0,mBJ,0.0,-2.20139,,P4_2/mnm
JVASP-39471,IrRu,FAILED_JVASP-39471.cif,0.0,0.0,mBJ,0.0,-0.02991,,P-6m2
JVASP-25155,Sr,FAILED_JVASP-25155.cif,0.0,0.0,mBJ,0.0,0.2164,,P6/mmm
JVASP-38338,RbCa3,FAILED_JVASP-38338.cif,0.0,0.0,mBJ,0.0,0.19046,,I4/mmm
JVASP-54865,TlCl,FAILED_JVASP-54865.cif,2.468,3.417,mBJ,0.949,-1.04503,,Cmcm
JVASP-16352,SmPPd,FAILED_JVASP-16352.cif,0.0,0.0,mBJ,0.0,-1.27195,,P6_3/mmc
JVASP-54681,FeHO2,FAILED_JVASP-54681.cif,0.0,0.0,mBJ,0.0,-1.23751,,Pnma
JVASP-39059,UCdPb2O6,FAILED_JVASP-39059.cif,1.754,1.824,mBJ,0.07,-2.10936,,P2_1/c
JVASP-39116,Sc2GaAu,FAILED_JVASP-39116.cif,0.0,0.0,mBJ,0.0,-0.72963,,Fm-3m
JVASP-39280,LuAl3C3,FAILED_JVASP-39280.cif,0.273,0.742,mBJ,0.469,-0.48781,,P6_3/mmc
JVASP-38425,PrTlAg2,FAILED_JVASP-38425.cif,0.0,0.0,mBJ,0.0,-0.2754,,Fm-3m
JVASP-25142,Fe,FAILED_JVASP-25142.cif,0.0,0.0,mBJ,0.0,0.0,,P6_3/mmc
JVASP-41570,Tm2MgTc,FAILED_JVASP-41570.cif,0.0,0.0,mBJ,0.0,-0.07401,,Fm-3m
JVASP-25327,Ti,FAILED_JVASP-25327.cif,0.0,0.0,mBJ,0.0,0.11264,,Im-3m
JVASP-16273,USbRh,FAILED_JVASP-16273.cif,0.0,0.0,mBJ,0.0,-0.50269,,F-43m
JVASP-26387,ErBi2IO4,FAILED_JVASP-26387.cif,1.557,2.798,mBJ,1.241,-2.10564,,P4/mmm
JVASP-19592,Zr3O,FAILED_JVASP-19592.cif,0.0,0.0,mBJ,0.0,-1.49981,,P6_322
JVASP-536,TaSe2,FAILED_JVASP-536.cif,0.0,0.0,mBJ,0.0,-0.82064,,P6_3mc
JVASP-39060,SmLuMg2,FAILED_JVASP-39060.cif,0.0,0.0,mBJ,0.0,-0.06254,,Fm-3m
JVASP-16439,ZrAg,FAILED_JVASP-16439.cif,0.0,0.0,mBJ,0.0,-0.14512,,P4/nmm
JVASP-39848,LiZrAu2,FAILED_JVASP-39848.cif,0.0,0.0,mBJ,0.0,-0.59674,,Fm-3m
JVASP-19589,DySb,FAILED_JVASP-19589.cif,0.0,0.0,mBJ,0.0,-1.17456,,Fm-3m
JVASP-38653,NaNi3,FAILED_JVASP-38653.cif,0.0,0.0,mBJ,0.0,0.44249,,I4/mmm
JVASP-39582,U2Ga2O5,FAILED_JVASP-39582.cif,0.0,0.0,mBJ,0.0,-2.08135,,P4/mmm
JVASP-40304,Pm3Tl,FAILED_JVASP-40304.cif,0.0,0.0,mBJ,0.0,-0.22645,,Pm-3m
JVASP-26472,Sm3CuSiS7,FAILED_JVASP-26472.cif,1.681,2.184,mBJ,0.503,-1.68664,,P6_3
JVASP-38781,ZnPd2Au,FAILED_JVASP-38781.cif,0.0,0.0,mBJ,0.0,-0.32726,,Fm-3m
JVASP-38275,RbZn4P3,FAILED_JVASP-38275.cif,0.139,1.034,mBJ,0.895,-0.3393,,P4/mmm
JVASP-40058,YbLi2Pb,FAILED_JVASP-40058.cif,0.0,0.034,mBJ,0.034,-0.45794,,Fm-3m
JVASP-25111,Br,FAILED_JVASP-25111.cif,0.0,0.0,mBJ,0.0,0.14154,,I4/mmm
JVASP-54682,FeHO2,FAILED_JVASP-54682.cif,0.0,0.0,mBJ,0.0,-1.23038,,Pnma
JVASP-40797,TiSnPd,FAILED_JVASP-40797.cif,0.526,0.565,mBJ,0.039,-0.57119,,F-43m
JVASP-14240,MgPt3,FAILED_JVASP-14240.cif,0.0,0.0,mBJ,0.0,-0.61834,,Pm-3m
JVASP-40836,ZrBiRh,FAILED_JVASP-40836.cif,0.0,0.0,mBJ,0.0,-0.02296,,F-43m
JVASP-15946,Ni3Sb,FAILED_JVASP-15946.cif,0.0,0.0,mBJ,0.0,-0.06272,,Fm-3m
JVASP-16563,MnSnIr,FAILED_JVASP-16563.cif,0.0,0.0,mBJ,0.0,0.34452,,F-43m
JVASP-16353,S,FAILED_JVASP-16353.cif,0.0,0.0,mBJ,0.0,0.45961,,Pm-3m
JVASP-38223,Rb3Mo,FAILED_JVASP-38223.cif,0.0,0.0,mBJ,0.0,1.17748,,Fm-3m
JVASP-40014,LuTaOs2,FAILED_JVASP-40014.cif,0.0,0.0,mBJ,0.0,-0.46206,,Fm-3m
JVASP-25287,Sb,FAILED_JVASP-25287.cif,0.0,0.0,mBJ,0.0,0.04854,,Pm-3m
JVASP-39235,LuScZn2,FAILED_JVASP-39235.cif,0.0,0.0,mBJ,0.0,-0.39106,,Fm-3m
JVASP-38224,Rb3Na,FAILED_JVASP-38224.cif,0.0,0.0,mBJ,0.0,0.01286,,Fm-3m
JVASP-25356,Sr,FAILED_JVASP-25356.cif,0.0,0.0,mBJ,0.0,0.00469,,P6_3/mmc
JVASP-40059,Li2NdIn,FAILED_JVASP-40059.cif,0.0,0.0,mBJ,0.0,-0.33191,,Fm-3m
JVASP-40532,TaMnRu2,FAILED_JVASP-40532.cif,0.0,0.0,mBJ,0.0,-0.20711,,Fm-3m
JVASP-201,CrTe,FAILED_JVASP-201.cif,0.0,0.0,mBJ,0.0,0.02764,,P6_3/mmc
JVASP-38178,K2H4Pt,FAILED_JVASP-38178.cif,3.308,3.994,mBJ,0.686,-0.4389,,P4_2/mnm
JVASP-958,Pa,FAILED_JVASP-958.cif,0.0,0.0,mBJ,0.0,0.0,,Fm-3m
JVASP-40584,LiTm2Al,FAILED_JVASP-40584.cif,0.0,0.0,mBJ,0.0,-0.2159,,Fm-3m
JVASP-25379,H,FAILED_JVASP-25379.cif,9.052,14.292,mBJ,5.24,-0.00127,,Cmce
JVASP-56298,TbSi2Pt2,FAILED_JVASP-56298.cif,0.0,0.0,mBJ,0.0,-0.97222,,I4/mmm
JVASP-15911,Li2SbPd,FAILED_JVASP-15911.cif,0.0,0.0,mBJ,0.0,-0.6579,,F-43m
JVASP-984,Rh,FAILED_JVASP-984.cif,0.0,0.0,mBJ,0.0,0.0,,Fm-3m
JVASP-40837,CrGeRh,FAILED_JVASP-40837.cif,0.0,0.0,mBJ,0.0,0.05272,,F-43m
JVASP-38871,LiNbIr2,FAILED_JVASP-38871.cif,0.0,0.0,mBJ,0.0,-0.53795,,Fm-3m
JVASP-40798,LiMgP,FAILED_JVASP-40798.cif,1.894,2.514,mBJ,0.62,-0.53111,,F-43m
JVASP-54684,FeHO2,FAILED_JVASP-54684.cif,0.0,0.0,mBJ,0.0,-1.23751,,Pnma
JVASP-38654,NaNi3,FAILED_JVASP-38654.cif,0.0,0.0,mBJ,0.0,0.43869,,Pm-3m
JVASP-39971,MgTaRh2,FAILED_JVASP-39971.cif,0.0,0.0,mBJ,0.0,-0.58379,,Fm-3m
JVASP-4567,YAlO3,FAILED_JVASP-4567.cif,3.978,5.934,mBJ,1.956,-3.53393,,P6_3/mmc
JVASP-38534,KTi2F7,FAILED_JVASP-38534.cif,0.0,0.0,mBJ,0.0,-3.40965,,Cmmm
JVASP-39117,Sc2GaIr,FAILED_JVASP-39117.cif,0.0,0.0,mBJ,0.0,-0.86007,,Fm-3m
JVASP-25288,H,FAILED_JVASP-25288.cif,9.016,14.334,mBJ,5.318,-0.00097,,I4/mmm
JVASP-35490,TlSiPt5,FAILED_JVASP-35490.cif,0.0,0.0,mBJ,0.0,-0.2955,,P4/mmm
JVASP-40248,ScZnPd2,FAILED_JVASP-40248.cif,0.0,0.0,mBJ,0.0,-0.8,,Fm-3m
JVASP-39198,Mg2SnO4,FAILED_JVASP-39198.cif,2.098,3.891,mBJ,1.793,-2.47602,,Fd-3m
JVASP-40060,Ti2ZnRe,FAILED_JVASP-40060.cif,0.0,0.0,mBJ,0.0,-0.33889,,Fm-3m
JVASP-16354,AlAu,FAILED_JVASP-16354.cif,0.0,0.0,mBJ,0.0,-0.25472,,Pm-3m
JVASP-16480,NbCd3,FAILED_JVASP-16480.cif,0.0,0.0,mBJ,0.0,0.12162,,Pm-3m
JVASP-25048,Ge,FAILED_JVASP-25048.cif,0.254,0.791,mBJ,0.537,0.13821,,P4_32_12
JVASP-16522,ScGa2Ni,FAILED_JVASP-16522.cif,0.0,0.0,mBJ,0.0,-0.64626,,Cmcm
JVASP-15947,TiNi2Sb,FAILED_JVASP-15947.cif,0.0,0.0,mBJ,0.0,-0.3292,,Fm-3m
JVASP-16647,Ti6Si2B,FAILED_JVASP-16647.cif,0.0,0.0,mBJ,0.0,-0.62117,,P-62m
JVASP-1023,Te,FAILED_JVASP-1023.cif,0.165,0.615,mBJ,0.45,0.0,,P3_121
JVASP-16274,YbSi2Rh2,FAILED_JVASP-16274.cif,0.0,0.0,mBJ,0.0,-1.01687,,I4/mmm
JVASP-25170,H,FAILED_JVASP-25170.cif,8.591,13.525,mBJ,4.934,0.00072,,P6_3/mmc
JVASP-38655,K2PtC2,FAILED_JVASP-38655.cif,1.006,1.609,mBJ,0.603,-0.1788,,P-3m1
JVASP-25329,He,FAILED_JVASP-25329.cif,16.59,32.563,mBJ,15.973,0.00468,,P6/mmm
JVASP-16275,TaS,FAILED_JVASP-16275.cif,0.0,0.0,mBJ,0.0,-0.74264,,P-6m2
JVASP-40799,HfSiNi,FAILED_JVASP-40799.cif,0.0,0.0,mBJ,0.0,-0.2725,,F-43m
JVASP-15912,LiSiNi2,FAILED_JVASP-15912.cif,0.0,0.0,mBJ,0.0,-0.48342,,Fm-3m
JVASP-25093,Sr,FAILED_JVASP-25093.cif,0.0,0.0,mBJ,0.0,0.00756,,P6_3/mmc
JVASP-4570,BN,FAILED_JVASP-4570.cif,3.645,5.328,mBJ,1.683,-1.37199,,P6_3/mmc
JVASP-25078,Dy,FAILED_JVASP-25078.cif,0.0,0.0,mBJ,0.0,0.01386,,Fm-3m
JVASP-26389,Ba2CuClO2,FAILED_JVASP-26389.cif,2.415,2.7,mBJ,0.285,-2.27406,,R-3m
JVASP-54868,ErMn2,FAILED_JVASP-54868.cif,0.0,0.0,mBJ,0.0,0.04756,,Fd-3m
JVASP-39850,Cd2PdRh,FAILED_JVASP-39850.cif,0.0,0.0,mBJ,0.0,-0.25429,,Fm-3m
JVASP-4573,B4C,FAILED_JVASP-4573.cif,0.0,0.0,mBJ,0.0,0.94185,,R-3m
JVASP-25128,Dy,FAILED_JVASP-25128.cif,0.0,0.0,mBJ,0.0,0.14699,,Im-3m
JVASP-38872,MgScHg2,FAILED_JVASP-38872.cif,0.0,0.0,mBJ,0.0,-0.29198,,Fm-3m
JVASP-39118,Sc2AlAg,FAILED_JVASP-39118.cif,0.0,0.0,mBJ,0.0,-0.38716,,Fm-3m
JVASP-16442,DyPbAu,FAILED_JVASP-16442.cif,0.0,0.0,mBJ,0.0,-0.69888,,F-43m
JVASP-40016,Lu2TlAg,FAILED_JVASP-40016.cif,0.0,0.0,mBJ,0.0,-0.34173,,Fm-3m
JVASP-39972,MgSnRh2,FAILED_JVASP-39972.cif,0.0,0.0,mBJ,0.0,-0.61479,,Fm-3m
JVASP-25289,C,FAILED_JVASP-25289.cif,0.111,2.133,mBJ,2.022,0.0029,,C2/m
JVASP-38993,TcPt3,FAILED_JVASP-38993.cif,0.0,0.0,mBJ,0.0,-0.10056,,I4/mmm
JVASP-16482,V3Cd,FAILED_JVASP-16482.cif,0.0,0.0,mBJ,0.0,0.35268,,Pm-3m
JVASP-25358,Tc,FAILED_JVASP-25358.cif,0.0,0.0,mBJ,0.0,0.00769,,P6_3/mmc
JVASP-39237,LuScRu2,FAILED_JVASP-39237.cif,0.0,0.0,mBJ,0.0,-0.56026,,Fm-3m
JVASP-15948,NiTe,FAILED_JVASP-15948.cif,0.0,0.0,mBJ,0.0,-0.17478,,R-3m
JVASP-16277,Sb,FAILED_JVASP-16277.cif,0.0,0.0,mBJ,0.0,0.34809,,Fm-3m
JVASP-25062,Cu,FAILED_JVASP-25062.cif,0.0,0.0,mBJ,0.0,0.03479,,I4/mmm
JVASP-40800,ZrSnPd,FAILED_JVASP-40800.cif,0.494,0.476,mBJ,-0.018,-0.78235,,F-43m
JVASP-16737,RbO2,FAILED_JVASP-16737.cif,0.0,0.0,mBJ,0.0,-1.00247,,I4/mmm
JVASP-35398,Nb2VSe4,FAILED_JVASP-35398.cif,0.0,0.0,mBJ,0.0,-0.84005,,C2/m
JVASP-25079,Er,FAILED_JVASP-25079.cif,0.0,0.0,mBJ,0.0,0.01632,,Fm-3m
JVASP-54869,BaAlSiH,FAILED_JVASP-54869.cif,0.807,0.999,mBJ,0.192,-0.53235,,P3m1
JVASP-25171,C,FAILED_JVASP-25171.cif,2.743,3.319,mBJ,0.576,0.79973,,Ia-3
JVASP-26473,Ti6O,FAILED_JVASP-26473.cif,0.0,0.0,mBJ,0.0,-0.87097,,P-31c
JVASP-40250,ScVRu2,FAILED_JVASP-40250.cif,0.0,0.0,mBJ,0.0,-0.47879,,Fm-3m
JVASP-38228,Rb3Mo,FAILED_JVASP-38228.cif,0.0,0.0,mBJ,0.0,1.17622,,Fm-3m
JVASP-39434,KH8N3,FAILED_JVASP-39434.cif,2.647,5.069,mBJ,2.422,-0.33288,,C222_1
JVASP-38375,Ho6Bi2Rh,FAILED_JVASP-38375.cif,0.0,0.0,mBJ,0.0,-0.6381,,P-62m
JVASP-25129,Er,FAILED_JVASP-25129.cif,0.0,0.0,mBJ,0.0,0.1432,,Im-3m
JVASP-16314,BaGe2Rh2,FAILED_JVASP-16314.cif,0.0,0.0,mBJ,0.0,-0.75889,,I4/mmm
JVASP-54686,NdHO2,FAILED_JVASP-54686.cif,4.185,6.084,mBJ,1.899,-2.69438,,P2_1
JVASP-16278,Sb,FAILED_JVASP-16278.cif,0.0,0.0,mBJ,0.0,0.32039,,I4/mmm
JVASP-40381,Tb2IrRh,FAILED_JVASP-40381.cif,0.0,0.0,mBJ,0.0,-0.92668,,Fm-3m
JVASP-39121,Sc2AlCd,FAILED_JVASP-39121.cif,0.0,0.0,mBJ,0.0,-0.39207,,Fm-3m
JVASP-15950,ScCo3C,FAILED_JVASP-15950.cif,0.0,0.0,mBJ,0.0,-0.34507,,Pm-3m
JVASP-25330,H,FAILED_JVASP-25330.cif,0.0,0.0,mBJ,0.0,0.40864,,C2/m
JVASP-39816,Li2CaPb,FAILED_JVASP-39816.cif,0.0,0.023,mBJ,0.023,-0.47093,,Fm-3m
JVASP-37214,Sc3Al,FAILED_JVASP-37214.cif,0.0,0.0,mBJ,0.0,-0.27746,,Pm-3m
JVASP-38833,Yb2ZnGa,FAILED_JVASP-38833.cif,0.0,0.0,mBJ,0.0,-0.51935,,Fm-3m
JVASP-40591,ScTlRh2,FAILED_JVASP-40591.cif,0.0,0.0,mBJ,0.0,-0.58321,,Fm-3m
JVASP-54687,LuHO2,FAILED_JVASP-54687.cif,4.304,6.333,mBJ,2.029,-2.88095,,P2_1
JVASP-25172,N,FAILED_JVASP-25172.cif,7.165,9.352,mBJ,2.187,0.00112,,Pa-3
JVASP-25064,Si,FAILED_JVASP-25064.cif,0.0,0.0,mBJ,0.0,0.69717,,Im-3m
JVASP-16694,Er2Al3Si2,FAILED_JVASP-16694.cif,0.0,0.0,mBJ,0.0,-0.52844,,C2/m
JVASP-39435,Na3Al,FAILED_JVASP-39435.cif,0.0,0.0,mBJ,0.0,0.09774,,Fm-3m
JVASP-25080,Ho,FAILED_JVASP-25080.cif,0.0,0.0,mBJ,0.0,0.01691,,Fm-3m
JVASP-38230,Rb3Mg,FAILED_JVASP-38230.cif,0.0,0.0,mBJ,0.0,0.09577,,I4/mmm
JVASP-39852,Ti2TcPt,FAILED_JVASP-39852.cif,0.0,0.0,mBJ,0.0,-0.7466,,Fm-3m
JVASP-39005,TmBiPd2,FAILED_JVASP-39005.cif,0.0,0.0,mBJ,0.0,-0.7459,,Fm-3m
JVASP-16523,PrGa,FAILED_JVASP-16523.cif,0.0,0.0,mBJ,0.0,-0.59161,,Cmcm
JVASP-54688,LuHO2,FAILED_JVASP-54688.cif,4.309,6.337,mBJ,2.028,-2.8809,,P2_1
JVASP-41039,ErAgHg2,FAILED_JVASP-41039.cif,0.0,0.0,mBJ,0.0,-0.21822,,Fm-3m
JVASP-40840,NbInNi,FAILED_JVASP-40840.cif,0.005,0.0,mBJ,-0.005,-0.11649,,F-43m
JVASP-16356,ScAlAu2,FAILED_JVASP-16356.cif,0.0,0.0,mBJ,0.0,-0.74712,,Fm-3m
JVASP-38277,RbZn4As3,FAILED_JVASP-38277.cif,0.0,0.79,mBJ,0.79,-0.31111,,P4/mmm
JVASP-40801,VGaPt,FAILED_JVASP-40801.cif,0.0,0.0,mBJ,0.0,-0.14616,,F-43m
JVASP-40540,TaTiMn2,FAILED_JVASP-40540.cif,0.0,0.0,mBJ,0.0,-0.29231,,Fm-3m
JVASP-16279,TlS,FAILED_JVASP-16279.cif,0.0,0.0,mBJ,0.0,-0.06384,,Pm-3m
JVASP-15915,Mg3ZnC,FAILED_JVASP-15915.cif,0.0,0.0,mBJ,0.0,0.08625,,Pm-3m
JVASP-40018,VFe3,FAILED_JVASP-40018.cif,0.0,0.0,mBJ,0.0,-0.13668,,Fm-3m
JVASP-25114,K,FAILED_JVASP-25114.cif,0.0,14.592,mBJ,14.592,-0.0,,Fm-3m
JVASP-16443,ErAu,FAILED_JVASP-16443.cif,0.0,0.0,mBJ,0.0,-0.96636,,Cmcm
JVASP-38496,PrEr3,FAILED_JVASP-38496.cif,0.0,0.0,mBJ,0.0,0.02314,,I4/mmm
JVASP-15916,PuSi2,FAILED_JVASP-15916.cif,0.0,0.0,mBJ,0.0,-0.5058,,P6/mmm
JVASP-39974,MgTaIr2,FAILED_JVASP-39974.cif,0.0,0.006,mBJ,0.006,-0.59843,,Fm-3m
JVASP-26635,RbSbBrF3,FAILED_JVASP-26635.cif,3.879,5.317,mBJ,1.438,-2.30935,,P-1
JVASP-16315,LuRh3C,FAILED_JVASP-16315.cif,0.0,0.0,mBJ,0.0,-0.58193,,Pm-3m
JVASP-56850,Tb2Co2I,FAILED_JVASP-56850.cif,0.0,0.0,mBJ,0.0,-0.67472,,P6_3/mmc
JVASP-54873,TlI,FAILED_JVASP-54873.cif,2.119,2.905,mBJ,0.786,-0.67114,,Fm-3m
JVASP-16769,SrCuAs,FAILED_JVASP-16769.cif,0.083,0.452,mBJ,0.369,-0.88235,,P6_3/mmc
JVASP-39242,K3V,FAILED_JVASP-39242.cif,0.0,0.0,mBJ,0.0,0.83226,,Fm-3m
JVASP-35491,In2AgSe4,FAILED_JVASP-35491.cif,0.0,0.0,mBJ,0.0,-0.33022,,I-4
JVASP-23791,ScSiNi,FAILED_JVASP-23791.cif,0.0,0.0,mBJ,0.0,-0.87736,,Pnma
JVASP-25624,NdTe2BrO5,FAILED_JVASP-25624.cif,2.442,3.855,mBJ,1.413,-1.83799,,I4/mmm
JVASP-15952,Er3GaC,FAILED_JVASP-15952.cif,0.0,0.0,mBJ,0.0,1.13854,,Pm-3m
JVASP-59562,Sr3Cr2O8,FAILED_JVASP-59562.cif,0.0,0.117,mBJ,0.117,-2.72752,,R-3m
JVASP-40382,Ho2CuRu,FAILED_JVASP-40382.cif,0.0,0.0,mBJ,0.0,-0.42488,,Fm-3m
JVASP-38353,Mn3Hg,FAILED_JVASP-38353.cif,0.0,0.0,mBJ,0.0,0.61972,,Pm-3m
JVASP-25143,Ga,FAILED_JVASP-25143.cif,0.0,0.0,mBJ,0.0,0.04287,,I4/mmm
JVASP-37215,Si2TcOs,FAILED_JVASP-37215.cif,0.0,0.0,mBJ,0.0,-0.27242,,Fm-3m
JVASP-23793,NpSi2Ir2,FAILED_JVASP-23793.cif,0.0,0.0,mBJ,0.0,-0.6089,,P4/nmm
JVASP-26524,RbCrF6,FAILED_JVASP-26524.cif,0.0,2.67,mBJ,2.67,-2.61741,,R-3
JVASP-39066,SmErRu2,FAILED_JVASP-39066.cif,0.0,0.0,mBJ,0.0,-0.32787,,Fm-3m
JVASP-40020,LuSbRh2,FAILED_JVASP-40020.cif,0.0,0.0,mBJ,0.0,-0.74507,,Fm-3m
JVASP-40063,Ti3Zn,FAILED_JVASP-40063.cif,0.0,0.0,mBJ,0.0,-0.11777,,Pm-3m
JVASP-25381,Ho,FAILED_JVASP-25381.cif,0.0,0.0,mBJ,0.0,0.00251,,P6_3/mmc
JVASP-30,GaN,FAILED_JVASP-30.cif,1.943,3.084,mBJ,1.141,-0.57106,,P6_3mc
JVASP-910,La,FAILED_JVASP-910.cif,0.0,0.0,mBJ,0.0,-0.0,,P6_3/mmc
JVASP-40592,SmCdAu2,FAILED_JVASP-40592.cif,0.0,0.0,mBJ,0.0,-0.70914,,Fm-3m
JVASP-39436,NdCuTeO,FAILED_JVASP-39436.cif,1.533,1.973,mBJ,0.44,-1.90406,,P4/nmm
JVASP-15877,YGeAu,FAILED_JVASP-15877.cif,0.0,0.0,mBJ,0.0,-0.87337,,P6_3mc
JVASP-39243,K3W,FAILED_JVASP-39243.cif,0.0,0.0,mBJ,0.0,1.31248,,Fm-3m
JVASP-39976,MgSc2Cd,FAILED_JVASP-39976.cif,0.0,0.0,mBJ,0.0,-0.17866,,Fm-3m
JVASP-38834,ZrGeRu2,FAILED_JVASP-38834.cif,0.0,0.0,mBJ,0.0,-0.58632,,Fm-3m
JVASP-40255,Sm2IrPd,FAILED_JVASP-40255.cif,0.0,0.0,mBJ,0.0,-0.86159,,Fm-3m
JVASP-25382,Kr,FAILED_JVASP-25382.cif,7.246,10.887,mBJ,3.641,0.00646,,Im-3m
JVASP-40021,LuSbRu2,FAILED_JVASP-40021.cif,0.0,0.0,mBJ,0.0,-0.48385,,Fm-3m
JVASP-39202,SbTeO3,FAILED_JVASP-39202.cif,0.0,0.0,mBJ,0.0,-0.57548,,Pm-3m
JVASP-39853,Cd2PtRh,FAILED_JVASP-39853.cif,0.0,0.0,mBJ,0.0,-0.20006,,Fm-3m
JVASP-40635,Sm2MgGe2,FAILED_JVASP-40635.cif,0.0,0.0,mBJ,0.0,-0.79254,,P4/mbm
JVASP-40841,HfNiPb,FAILED_JVASP-40841.cif,0.0,0.02,mBJ,0.02,0.43045,,F-43m
JVASP-40803,VGaNi,FAILED_JVASP-40803.cif,0.0,0.0,mBJ,0.0,0.26194,,F-43m
JVASP-37294,Sm2RuAu,FAILED_JVASP-37294.cif,0.0,0.0,mBJ,0.0,-0.55029,,Fm-3m
JVASP-38876,ZrSnPd2,FAILED_JVASP-38876.cif,0.0,0.0,mBJ,0.0,-0.71552,,Fm-3m
JVASP-15919,LuP,FAILED_JVASP-15919.cif,0.0,0.0,mBJ,0.0,-1.68533,,Fm-3m
JVASP-16281,CuF,FAILED_JVASP-16281.cif,0.0,0.0,mBJ,0.0,-0.91407,,F-43m
JVASP-25081,Hg,FAILED_JVASP-25081.cif,0.0,0.0,mBJ,0.0,0.2448,,P6/mmm
JVASP-16359,AlCrCo2,FAILED_JVASP-16359.cif,0.0,0.0,mBJ,0.0,-0.2344,,Fm-3m
JVASP-16739,VPt2,FAILED_JVASP-16739.cif,0.0,0.0,mBJ,0.0,-0.54764,,Immm
JVASP-931,Na,FAILED_JVASP-931.cif,0.0,0.0,mBJ,0.0,0.0,,P6_3/mmc
JVASP-35230,LuO3,FAILED_JVASP-35230.cif,1.529,3.08,mBJ,1.551,-1.99586,,Im-3
JVASP-934,Nb,FAILED_JVASP-934.cif,0.0,0.0,mBJ,0.0,0.0,,Im-3m
JVASP-25173,Si,FAILED_JVASP-25173.cif,0.0,0.0,mBJ,0.0,0.7229,,Fm-3m