material_id,formula,cif_path,pbe_bandgap,hse_bandgap,gap_type,correction,formation_energy,total_energy,spacegroup
JVASP-22608,NiPtF6,FAILED_JVASP-22608.cif,0.0,0.0,mBJ,0.0,-1.48187,,R-3
JVASP-104937,NdAlSi,FAILED_JVASP-104937.cif,0.0,0.0,mBJ,0.0,-0.69155,,I4_1md
JVASP-107533,Pb4Se3S,FAILED_JVASP-107533.cif,0.639,1.022,mBJ,0.383,-0.61395,,P4/mmm
JVASP-13354,Nd2CdS4,FAILED_JVASP-13354.cif,1.692,2.707,mBJ,1.015,-1.71902,,I-42d
JVASP-16169,YbMn2As2,FAILED_JVASP-16169.cif,0.0,0.0,mBJ,0.0,-0.49178,,P-3m1
JVASP-18859,Li2InRh,FAILED_JVASP-18859.cif,0.0,0.0,mBJ,0.0,-0.39633,,F-43m
JVASP-2394,Na2HgO2,FAILED_JVASP-2394.cif,1.819,2.915,mBJ,1.096,-1.15977,,I4/mmm
JVASP-15729,Mn3PtN,FAILED_JVASP-15729.cif,0.0,0.0,mBJ,0.0,-0.25295,,Pm-3m
JVASP-106715,Th2CuSi3,FAILED_JVASP-106715.cif,0.0,0.0,mBJ,0.0,-0.67883,,P-6m2
JVASP-107363,BiPb,FAILED_JVASP-107363.cif,0.0,0.0,mBJ,0.0,0.04129,,P-6m2
JVASP-107262,GaPd,FAILED_JVASP-107262.cif,0.0,0.0,mBJ,0.0,-0.53372,,Pm-3m
JVASP-107033,Sr2GaSi,FAILED_JVASP-107033.cif,0.0,0.0,mBJ,0.0,-0.54614,,Amm2
JVASP-106762,NdGaSi,FAILED_JVASP-106762.cif,0.0,0.0,mBJ,0.0,-0.69702,,I4_1md
JVASP-107705,Yb2TlZn,FAILED_JVASP-107705.cif,0.0,0.0,mBJ,0.0,-0.48274,,Fm-3m
JVASP-43907,LiMnCo3O8,FAILED_JVASP-43907.cif,0.0,0.0,mBJ,0.0,-1.33816,,R-3m
JVASP-2838,K2PtSe2,FAILED_JVASP-2838.cif,1.019,1.503,mBJ,0.484,-0.98373,,Immm
JVASP-104769,AgSbSe2,FAILED_JVASP-104769.cif,0.0,0.0,mBJ,0.0,-0.1482,,P4/mmm
JVASP-51315,Ba2BeGa,FAILED_JVASP-51315.cif,0.0,0.0,mBJ,0.0,0.30989,,F-43m
JVASP-14698,NdAl2,FAILED_JVASP-14698.cif,0.0,0.0,mBJ,0.0,-0.5254,,Fd-3m
JVASP-22609,FeF3,FAILED_JVASP-22609.cif,0.0,0.0,mBJ,0.0,-1.89448,,P321
JVASP-3057,RbCaSb,FAILED_JVASP-3057.cif,1.75,2.322,mBJ,0.572,-0.9026,,P4/nmm
JVASP-54720,GaHO2,FAILED_JVASP-54720.cif,2.106,4.119,mBJ,2.013,-1.49294,,Fdd2
JVASP-1525,CaHgO2,FAILED_JVASP-1525.cif,2.303,3.202,mBJ,0.899,-1.84654,,R-3m
JVASP-106946,DyThRu2,FAILED_JVASP-106946.cif,0.0,0.0,mBJ,0.0,-0.492,,Fm-3m
JVASP-2967,SmOF,FAILED_JVASP-2967.cif,4.69,6.423,mBJ,1.733,-4.05647,,R-3m
JVASP-13071,TaAgF6,FAILED_JVASP-13071.cif,3.308,3.804,mBJ,0.496,-2.82078,,P4_2/mcm
JVASP-18683,HoInCu2,FAILED_JVASP-18683.cif,0.0,0.0,mBJ,0.0,-0.35628,,Fm-3m
JVASP-52282,Li2AgF5,FAILED_JVASP-52282.cif,1.091,1.153,mBJ,0.062,-2.10221,,P1
JVASP-59071,Rb3BS3,FAILED_JVASP-59071.cif,2.659,3.987,mBJ,1.328,-1.17931,,P2_1/c
JVASP-106586,PrHoTl2,FAILED_JVASP-106586.cif,0.0,0.0,mBJ,0.0,-0.38127,,Fm-3m
JVASP-107263,BaMg2In2,FAILED_JVASP-107263.cif,0.0,0.0,mBJ,0.0,-0.39617,,I4/mmm
JVASP-106494,BiPt3,FAILED_JVASP-106494.cif,0.0,0.0,mBJ,0.0,0.00956,,Pm-3m
JVASP-104770,YSe2,FAILED_JVASP-104770.cif,0.0,0.0,mBJ,0.0,-1.6696,,Immm
JVASP-105326,Si2P4Rh,FAILED_JVASP-105326.cif,0.0,0.0,mBJ,0.0,-0.25884,,C2/m
JVASP-106645,Rb2SnF6,FAILED_JVASP-106645.cif,5.391,8.213,mBJ,2.822,-2.86781,,Fm-3m
JVASP-107036,PrNiSb,FAILED_JVASP-107036.cif,0.0,0.0,mBJ,0.0,-0.83832,,P-6m2
JVASP-13074,TlIO4,FAILED_JVASP-13074.cif,1.68,1.732,mBJ,0.052,-0.39106,,I4_1/a
JVASP-59570,Ba3Cr2O8,FAILED_JVASP-59570.cif,0.0,0.0,mBJ,0.0,-2.71766,,R-3m
JVASP-19919,B2Mo,FAILED_JVASP-19919.cif,0.0,0.0,mBJ,0.0,-0.2457,,P6/mmm
JVASP-106816,Er2Si3Ni,FAILED_JVASP-106816.cif,0.0,0.0,mBJ,0.0,-0.65904,,P-6m2
JVASP-22693,MnO,FAILED_JVASP-22693.cif,0.0,0.0,mBJ,0.0,-0.7304,,R-3m
JVASP-1492,YSbPt,FAILED_JVASP-1492.cif,0.033,0.544,mBJ,0.511,-1.2377,,F-43m
JVASP-22532,BrF5,FAILED_JVASP-22532.cif,3.168,5.51,mBJ,2.342,-0.95475,,Cmc2_1
JVASP-2724,AlCuSe2,FAILED_JVASP-2724.cif,1.069,2.509,mBJ,1.44,-0.68207,,I-42d
JVASP-15298,SmSi2Cu2,FAILED_JVASP-15298.cif,0.0,0.0,mBJ,0.0,-0.56196,,I4/mmm
JVASP-22522,BeO,FAILED_JVASP-22522.cif,7.293,9.23,mBJ,1.937,-3.02511,,F-43m
JVASP-107264,Zr3S2,FAILED_JVASP-107264.cif,0.0,0.0,mBJ,0.0,-1.17866,,R32
JVASP-15252,TbSi2Ru2,FAILED_JVASP-15252.cif,0.0,0.0,mBJ,0.0,-0.84789,,I4/mmm
JVASP-2841,Rb2PtSe2,FAILED_JVASP-2841.cif,1.044,1.464,mBJ,0.42,-0.97593,,Immm
JVASP-18860,Li2InIr,FAILED_JVASP-18860.cif,0.0,0.0,mBJ,0.0,-0.32888,,F-43m
JVASP-59073,ScI3O9,FAILED_JVASP-59073.cif,3.772,4.913,mBJ,1.141,-1.05148,,R-3
JVASP-54768,U3H2O10,FAILED_JVASP-54768.cif,2.014,2.006,mBJ,-0.008,-2.7387,,P1
JVASP-107481,SrAcIn2,FAILED_JVASP-107481.cif,0.0,0.0,mBJ,0.0,-0.49328,,Fm-3m
JVASP-51207,V2CuBr,FAILED_JVASP-51207.cif,0.0,0.0,mBJ,0.0,0.63048,,Fm-3m
JVASP-52912,Mg2NiH4,FAILED_JVASP-52912.cif,1.725,1.928,mBJ,0.203,-0.28615,,C2/c
JVASP-28396,FeBiAsO,FAILED_JVASP-28396.cif,0.0,0.0,mBJ,0.0,-0.54921,,P4/nmm
JVASP-43169,Li2CoSnO4,FAILED_JVASP-43169.cif,0.0,0.0,mBJ,0.0,-1.68357,,P2/m
JVASP-104940,NbAgO3,FAILED_JVASP-104940.cif,0.851,0.878,mBJ,0.027,-1.94501,,P4/mbm
JVASP-18984,HfO2,FAILED_JVASP-18984.cif,4.315,5.904,mBJ,1.589,-3.79814,,Pbca
JVASP-13081,BaB2S4,FAILED_JVASP-13081.cif,2.673,3.586,mBJ,0.913,-1.09765,,Cc
JVASP-107164,CaAcRh2,FAILED_JVASP-107164.cif,0.0,0.0,mBJ,0.0,-0.54463,,Fm-3m
JVASP-3060,K4BeP2,FAILED_JVASP-3060.cif,1.221,2.716,mBJ,1.495,-0.5062,,R-3m
JVASP-58877,Sb5IO7,FAILED_JVASP-58877.cif,2.46,3.497,mBJ,1.037,-1.32923,,P-62c
JVASP-13355,CaNd2Te4,FAILED_JVASP-13355.cif,1.17,1.499,mBJ,0.329,-1.55978,,I-42d
JVASP-155,PdS2,FAILED_JVASP-155.cif,0.052,0.138,mBJ,0.086,-0.31631,,Pbca
JVASP-50971,YbTiO3,FAILED_JVASP-50971.cif,2.364,2.851,mBJ,0.487,-3.60654,,Pnma
JVASP-106763,NdGa3Pd,FAILED_JVASP-106763.cif,0.0,0.0,mBJ,0.0,-0.69248,,I-4m2
JVASP-57967,Zn2CoN2,FAILED_JVASP-57967.cif,0.0,0.0,mBJ,0.0,0.13671,,C2/m
JVASP-107265,ZnGeP2,FAILED_JVASP-107265.cif,0.188,0.878,mBJ,0.69,-0.21627,,P-4m2
JVASP-52232,Li3Cu4O4,FAILED_JVASP-52232.cif,0.0,0.0,mBJ,0.0,-1.19378,,Imm2
JVASP-51280,BiBCl,FAILED_JVASP-51280.cif,0.0,0.0,mBJ,0.0,1.54354,,F-43m
JVASP-2979,SrTiN2,FAILED_JVASP-2979.cif,0.818,1.208,mBJ,0.39,-1.58273,,P4/nmm
JVASP-59074,Rb6Br4O,FAILED_JVASP-59074.cif,1.628,3.274,mBJ,1.646,-1.69469,,R-3c
JVASP-107095,LiSiB,FAILED_JVASP-107095.cif,0.418,0.683,mBJ,0.265,-0.19452,,F-43m
JVASP-104942,NaPrS2,FAILED_JVASP-104942.cif,0.37,1.05,mBJ,0.68,-1.87159,,P4/mmm
JVASP-54721,GaHO2,FAILED_JVASP-54721.cif,3.306,4.99,mBJ,1.684,-1.63354,,Fdd2
JVASP-105186,KMg3,FAILED_JVASP-105186.cif,0.0,0.0,mBJ,0.0,0.13735,,I4/mmm
JVASP-107482,YbSiO3,FAILED_JVASP-107482.cif,4.396,5.564,mBJ,1.168,-3.27937,,Pm-3m
JVASP-58879,Tl6SeI4,FAILED_JVASP-58879.cif,1.551,2.214,mBJ,0.663,-0.60743,,P4/mnc
JVASP-14160,SnGeS3,FAILED_JVASP-14160.cif,1.294,2.135,mBJ,0.841,-0.45136,,P2_1/c
JVASP-2982,NdZnPO,FAILED_JVASP-2982.cif,1.219,2.029,mBJ,0.81,-1.94523,,R-3m
JVASP-2397,AlCuS2,FAILED_JVASP-2397.cif,1.897,2.491,mBJ,0.594,-0.94319,,I-42d
JVASP-102356,Li3IrF6,FAILED_JVASP-102356.cif,2.37,3.289,mBJ,0.919,-2.25237,,Fm-3m
JVASP-16040,SmScSi,FAILED_JVASP-16040.cif,0.0,0.0,mBJ,0.0,-0.63722,,I4/mmm
JVASP-13868,Na2SiF6,FAILED_JVASP-13868.cif,7.266,11.014,mBJ,3.748,-3.15705,,P-3m1
JVASP-2217,Hg2GeSe4,FAILED_JVASP-2217.cif,0.286,1.413,mBJ,1.127,-0.12591,,I-4
JVASP-51242,BaHfMg2,FAILED_JVASP-51242.cif,0.0,0.0,mBJ,0.0,0.54552,,F-43m
JVASP-107267,Zn2TeSe,FAILED_JVASP-107267.cif,0.385,1.684,mBJ,1.299,-0.57338,,R3m
JVASP-13356,Mg3H2O6,FAILED_JVASP-13356.cif,2.219,4.109,mBJ,1.89,-1.59093,,C2/m
JVASP-2727,AlCuTe2,FAILED_JVASP-2727.cif,1.102,1.868,mBJ,0.766,-0.36997,,I-42d
JVASP-107708,Y2MgSi2,FAILED_JVASP-107708.cif,0.0,0.0,mBJ,0.0,-0.75734,,P4/mbm
JVASP-51170,SnRuW,FAILED_JVASP-51170.cif,0.0,0.0,mBJ,0.0,0.4181,,F-43m
JVASP-107657,HfThTc2,FAILED_JVASP-107657.cif,0.0,0.0,mBJ,0.0,-0.28149,,Fm-3m
JVASP-19086,K2CO3,FAILED_JVASP-19086.cif,4.269,7.007,mBJ,2.738,-1.91006,,P2_1/c
JVASP-1219,CuO,FAILED_JVASP-1219.cif,0.0,0.0,mBJ,0.0,-0.73189,,P4_2/mmc
JVASP-105391,TaTiB4,FAILED_JVASP-105391.cif,0.0,0.0,mBJ,0.0,-0.85873,,P6/mmm
JVASP-15339,NdCo2Si2,FAILED_JVASP-15339.cif,0.0,0.0,mBJ,0.0,-0.72891,,I4/mmm
JVASP-19921,TbB2,FAILED_JVASP-19921.cif,0.0,0.0,mBJ,0.0,-0.57346,,P6/mmm
JVASP-107167,DyHoTl2,FAILED_JVASP-107167.cif,0.0,0.0,mBJ,0.0,-0.35357,,Fm-3m
JVASP-106537,Li2InHg,FAILED_JVASP-106537.cif,0.0,0.0,mBJ,0.0,-0.32384,,Fm-3m
JVASP-3063,KAuSe,FAILED_JVASP-3063.cif,2.046,3.117,mBJ,1.071,-0.77581,,Cmcm
JVASP-52849,Al5HO8,FAILED_JVASP-52849.cif,4.757,6.017,mBJ,1.26,-2.82758,,P6_3mc
JVASP-106820,CoNiP,FAILED_JVASP-106820.cif,0.0,0.0,mBJ,0.0,-0.53712,,P-62m
JVASP-13357,Li7NbO6,FAILED_JVASP-13357.cif,3.567,4.167,mBJ,0.6,-2.32627,,R3
JVASP-1582,Rb2S,FAILED_JVASP-1582.cif,1.978,4.417,mBJ,2.439,-1.1685,,Fm-3m
JVASP-51243,CrNi2Hg,FAILED_JVASP-51243.cif,0.0,0.0,mBJ,0.0,0.57212,,F-43m
JVASP-1231,BaTiO3,FAILED_JVASP-1231.cif,2.444,2.651,mBJ,0.207,-3.35389,,R3m
JVASP-104888,Sr2UInO6,FAILED_JVASP-104888.cif,1.128,1.723,mBJ,0.595,-2.94706,,Fm-3m
JVASP-50972,YLuO3,FAILED_JVASP-50972.cif,3.575,5.686,mBJ,2.111,-3.83062,,P6_3/mmc
JVASP-12047,CoO2,FAILED_JVASP-12047.cif,0.0,0.0,mBJ,0.0,-0.99134,,P-3m1
JVASP-107594,AcFeO3,FAILED_JVASP-107594.cif,0.0,0.0,mBJ,0.0,-2.65931,,Pm-3m
JVASP-2220,Nd2SO2,FAILED_JVASP-2220.cif,2.992,4.464,mBJ,1.472,-3.29523,,P-3m1
JVASP-15253,YbBRh3,FAILED_JVASP-15253.cif,0.0,0.0,mBJ,0.0,-0.65233,,Pm-3m
JVASP-49908,ZrO2,FAILED_JVASP-49908.cif,3.591,4.367,mBJ,0.776,-3.58467,,Pnma
JVASP-7674,ThTaN3,FAILED_JVASP-7674.cif,0.128,0.828,mBJ,0.7,-1.45268,,Pm-3m
JVASP-58881,KInBr3,FAILED_JVASP-58881.cif,2.258,3.481,mBJ,1.223,-1.24545,,P-3
JVASP-107658,Ho2InHg,FAILED_JVASP-107658.cif,0.0,0.0,mBJ,0.0,-0.42982,,Fm-3m
JVASP-2991,CaMg2As2,FAILED_JVASP-2991.cif,1.374,1.807,mBJ,0.433,-1.0429,,P-3m1
JVASP-51124,TcIrOs,FAILED_JVASP-51124.cif,0.0,0.0,mBJ,0.0,0.48261,,F-43m
JVASP-107368,AgSbPb2S4,FAILED_JVASP-107368.cif,0.147,0.275,mBJ,0.128,-0.39182,,I4/mmm
JVASP-107437,DyTmCd2,FAILED_JVASP-107437.cif,0.0,0.0,mBJ,0.0,-0.34676,,Fm-3m
JVASP-21200,Tl,FAILED_JVASP-21200.cif,0.0,0.0,mBJ,0.0,0.00437,,Im-3m
JVASP-2619,Tl3AsSe3,FAILED_JVASP-2619.cif,0.696,1.363,mBJ,0.667,-0.32376,,R3m
JVASP-1531,RbDyS2,FAILED_JVASP-1531.cif,2.322,3.4,mBJ,1.078,-2.03861,,R-3m
JVASP-50386,MgAg2O4,FAILED_JVASP-50386.cif,0.737,1.034,mBJ,0.297,-0.85268,,I4_1/amd
JVASP-106647,TbAlGe,FAILED_JVASP-106647.cif,0.0,0.0,mBJ,0.0,-0.69164,,Cmcm
JVASP-2844,K2Te2Pt,FAILED_JVASP-2844.cif,0.864,1.323,mBJ,0.459,-0.8592,,Immm
JVASP-55005,ZrCl2,FAILED_JVASP-55005.cif,0.0,0.0,mBJ,0.0,-1.67928,,R-3
JVASP-107483,TmRu3,FAILED_JVASP-107483.cif,0.0,0.0,mBJ,0.0,0.05235,,Pm-3m
JVASP-107098,Tm2TeO2,FAILED_JVASP-107098.cif,0.459,1.478,mBJ,1.019,-3.10903,,P6_3/mmc
JVASP-107660,K2RbBi,FAILED_JVASP-107660.cif,0.337,1.134,mBJ,0.797,-0.48756,,Fm-3m
JVASP-58885,SiH3I,FAILED_JVASP-58885.cif,4.106,5.143,mBJ,1.037,-0.09822,,P2_1/c
JVASP-16927,CoS2,FAILED_JVASP-16927.cif,0.0,0.0,mBJ,0.0,-0.37476,,R-3m
JVASP-50229,LiCuO,FAILED_JVASP-50229.cif,1.09,1.438,mBJ,0.348,-1.25345,,Cmcm
JVASP-7756,NbAgO3,FAILED_JVASP-7756.cif,1.426,1.64,mBJ,0.214,-1.90872,,Pm-3m
JVASP-13084,LiMgN,FAILED_JVASP-13084.cif,2.603,3.491,mBJ,0.888,-0.83755,,Pnma
JVASP-13942,Nb3SBr7,FAILED_JVASP-13942.cif,0.74,0.965,mBJ,0.225,-1.05071,,P3m1
JVASP-2400,Tl2SiF6,FAILED_JVASP-2400.cif,5.04,6.11,mBJ,1.07,-2.73565,,Fm-3m
JVASP-49763,TmBiO3,FAILED_JVASP-49763.cif,3.178,4.168,mBJ,0.99,-2.61946,,R3c
JVASP-52283,DyBO3,FAILED_JVASP-52283.cif,4.707,6.855,mBJ,2.148,-3.2579,,Ama2
JVASP-51208,LiTaBe,FAILED_JVASP-51208.cif,0.0,0.0,mBJ,0.0,1.23681,,F-43m
JVASP-107099,Rb2HgIrF6,FAILED_JVASP-107099.cif,0.0,0.687,mBJ,0.687,-1.9661,,Fm-3m
JVASP-7675,Sm2O3,FAILED_JVASP-7675.cif,4.069,5.528,mBJ,1.459,-3.66007,,P-3m1
JVASP-2730,NaNdO2,FAILED_JVASP-2730.cif,3.773,5.377,mBJ,1.604,-2.8636,,I4_1/amd
JVASP-54769,MgH2O2,FAILED_JVASP-54769.cif,4.411,6.719,mBJ,2.308,-1.58589,,P3m1
JVASP-2628,Sr3SbN,FAILED_JVASP-2628.cif,0.307,0.844,mBJ,0.537,-1.09191,,Pm-3m
JVASP-22523,CO2,FAILED_JVASP-22523.cif,6.931,9.685,mBJ,2.754,-1.31361,,Pa-3
JVASP-29315,V2O5,FAILED_JVASP-29315.cif,1.389,1.746,mBJ,0.357,-2.39167,,P2_1/m
JVASP-4038,KSb2,FAILED_JVASP-4038.cif,0.24,0.855,mBJ,0.615,-0.35012,,C2/m
JVASP-107041,NbB4Mo3,FAILED_JVASP-107041.cif,0.0,0.0,mBJ,0.0,-0.52123,,Amm2
JVASP-51281,NiBTe,FAILED_JVASP-51281.cif,0.0,0.0,mBJ,0.0,0.76766,,F-43m
JVASP-13358,Al5CuSe8,FAILED_JVASP-13358.cif,0.735,1.062,mBJ,0.327,-0.83512,,F-43m
JVASP-5707,Si3Ir,FAILED_JVASP-5707.cif,0.0,0.0,mBJ,0.0,0.21322,,P6_3/mmc
JVASP-2850,Na3SbSe4,FAILED_JVASP-2850.cif,1.057,2.059,mBJ,1.002,-0.76918,,I-43m
JVASP-1453,AlCuO2,FAILED_JVASP-1453.cif,2.064,2.062,mBJ,-0.002,-2.30536,,R-3m
JVASP-104995,ZnBi3,FAILED_JVASP-104995.cif,0.0,0.0,mBJ,0.0,0.18746,,Pm-3m
JVASP-12986,BiTe2Br4,FAILED_JVASP-12986.cif,0.898,1.027,mBJ,0.129,-0.47656,,P-1
JVASP-4041,TiCu4S4,FAILED_JVASP-4041.cif,1.473,1.468,mBJ,-0.005,-0.67066,,I-42m
JVASP-59593,NiRh2O4,FAILED_JVASP-59593.cif,0.0,0.0,mBJ,0.0,-0.82836,,Fd-3m
JVASP-7676,GeSe,FAILED_JVASP-7676.cif,0.167,0.204,mBJ,0.037,-0.251,,Fm-3m
JVASP-107662,KHg3,FAILED_JVASP-107662.cif,0.0,0.0,mBJ,0.0,-0.10005,,Fm-3m
JVASP-5083,FeTe,FAILED_JVASP-5083.cif,0.0,0.0,mBJ,0.0,-0.02648,,P4/nmm
JVASP-58988,Na3BP2,FAILED_JVASP-58988.cif,1.971,2.728,mBJ,0.757,-0.4298,,P2_1/c
JVASP-19855,HoPd,FAILED_JVASP-19855.cif,0.0,0.0,mBJ,0.0,-0.95514,,Pm-3m
JVASP-107208,NdYIn2,FAILED_JVASP-107208.cif,0.0,0.0,mBJ,0.0,-0.52803,,Fm-3m
JVASP-13003,InTeBr,FAILED_JVASP-13003.cif,1.473,2.407,mBJ,0.934,-0.55092,,P2_1/c
JVASP-2409,Rb2HgO2,FAILED_JVASP-2409.cif,2.198,3.191,mBJ,0.993,-1.13172,,I4/mmm
JVASP-28459,Te2W3Se2S2,FAILED_JVASP-28459.cif,0.314,1.002,mBJ,0.688,-0.39877,,P3m1
JVASP-50613,BaCaI4,FAILED_JVASP-50613.cif,2.999,4.119,mBJ,1.12,-1.6977,,R-3m
JVASP-15384,Y3AlC,FAILED_JVASP-15384.cif,0.0,0.0,mBJ,0.0,-0.51346,,Pm-3m
JVASP-107044,MnAlRh2,FAILED_JVASP-107044.cif,0.0,0.0,mBJ,0.0,-0.60755,,P4/mmm
JVASP-58165,Ca2TiIrO6,FAILED_JVASP-58165.cif,0.0,0.0,mBJ,0.0,-2.64453,,P2_1/c
JVASP-1257,UO3,FAILED_JVASP-1257.cif,1.808,1.717,mBJ,-0.091,-3.22514,,Pm-3m
JVASP-22694,NiO,FAILED_JVASP-22694.cif,0.0,0.0,mBJ,0.0,-0.63566,,Fm-3m
JVASP-50387,Sm2Pt2O7,FAILED_JVASP-50387.cif,1.237,1.368,mBJ,0.131,-2.16402,,Fd-3m
JVASP-14305,Np2InNi2,FAILED_JVASP-14305.cif,0.0,0.0,mBJ,0.0,-0.14966,,P4/mbm
JVASP-7757,CdTe,FAILED_JVASP-7757.cif,0.526,1.757,mBJ,1.231,-0.40426,,P6_3mc
JVASP-58992,Na5InS4,FAILED_JVASP-58992.cif,2.023,3.785,mBJ,1.762,-1.14063,,P2_1/m
JVASP-51244,ZrAlW,FAILED_JVASP-51244.cif,0.0,0.0,mBJ,0.0,0.45679,,F-43m
JVASP-107439,DyTmIn2,FAILED_JVASP-107439.cif,0.0,0.0,mBJ,0.0,-0.45728,,Fm-3m
JVASP-105396,SrMg3O4,FAILED_JVASP-105396.cif,2.36,4.192,mBJ,1.832,-2.76236,,P4/mmm
JVASP-2631,Th2SeN2,FAILED_JVASP-2631.cif,1.676,2.396,mBJ,0.72,-2.10521,,P-3m1
JVASP-22573,TiO2,FAILED_JVASP-22573.cif,2.682,3.042,mBJ,0.36,-3.24261,,C2/m
JVASP-18608,HoAu3,FAILED_JVASP-18608.cif,0.0,0.0,mBJ,0.0,-0.78332,,Pmmn
JVASP-107101,K2NaYI6,FAILED_JVASP-107101.cif,3.076,3.679,mBJ,0.603,-1.43067,,Fm-3m
JVASP-107272,YCuSi2Ni,FAILED_JVASP-107272.cif,0.0,0.0,mBJ,0.0,-0.70533,,I-4m2
JVASP-3066,BaAgP,FAILED_JVASP-3066.cif,0.195,0.567,mBJ,0.372,-0.814,,P6_3/mmc
JVASP-106649,ScIn2,FAILED_JVASP-106649.cif,0.0,0.0,mBJ,0.0,-0.37776,,Cmmm
JVASP-106595,Sc2AgPt,FAILED_JVASP-106595.cif,0.0,0.0,mBJ,0.0,-0.84196,,Fm-3m
JVASP-2853,RbLiS,FAILED_JVASP-2853.cif,3.062,3.84,HSE,0.778,-1.36693,,P4/nmm
JVASP-7632,CdSnSb2,FAILED_JVASP-7632.cif,0.07,0.089,mBJ,0.019,-0.014,,I-42d
JVASP-13086,SiC2N4,FAILED_JVASP-13086.cif,4.273,5.65,mBJ,1.377,-0.15063,,Pn-3m
JVASP-22735,LiCaAs,FAILED_JVASP-22735.cif,1.883,2.44,mBJ,0.557,-1.06059,,F-43m
JVASP-48590,LiMnF6,FAILED_JVASP-48590.cif,0.0,0.0,mBJ,0.0,-2.37126,,R-3
JVASP-107213,Pr2TlIn,FAILED_JVASP-107213.cif,0.0,0.0,mBJ,0.0,-0.47772,,Fm-3m
JVASP-107321,Li2AlGa,FAILED_JVASP-107321.cif,0.0,0.0,mBJ,0.0,-0.34018,,F-43m
JVASP-22575,SiO2,FAILED_JVASP-22575.cif,5.751,8.534,mBJ,2.783,-2.87812,,Ama2
JVASP-16042,TaF3,FAILED_JVASP-16042.cif,0.0,3.114,mBJ,3.114,-2.5311,,Pm-3m
JVASP-28422,MoWSe2S2,FAILED_JVASP-28422.cif,0.588,0.923,mBJ,0.335,-0.76466,,P-6m2
JVASP-22695,CoO,FAILED_JVASP-22695.cif,0.0,0.0,mBJ,0.0,-0.71129,,F-43m
JVASP-13087,Si2CN4,FAILED_JVASP-13087.cif,4.464,5.801,mBJ,1.337,-0.70149,,Aea2
JVASP-15255,SrAlSi,FAILED_JVASP-15255.cif,0.0,0.005,mBJ,0.005,-0.48181,,P-6m2
JVASP-1267,BaTe,FAILED_JVASP-1267.cif,1.605,2.148,mBJ,0.543,-1.88324,,Fm-3m
JVASP-107544,MnZnTe2,FAILED_JVASP-107544.cif,0.0,0.622,mBJ,0.622,-0.21346,,P-4m2
JVASP-16173,Ca3GeO,FAILED_JVASP-16173.cif,0.0,0.311,mBJ,0.311,-1.75293,,Pm-3m
JVASP-2274,VCu3S4,FAILED_JVASP-2274.cif,1.18,1.197,mBJ,0.017,-0.64448,,P-43m
JVASP-18575,Rb2WCl6,FAILED_JVASP-18575.cif,0.0,0.0,mBJ,0.0,-1.47343,,Fm-3m
JVASP-2517,NdZnAsO,FAILED_JVASP-2517.cif,0.848,1.622,mBJ,0.774,-1.89766,,P4/nmm
JVASP-51125,KSnOs,FAILED_JVASP-51125.cif,0.0,0.377,mBJ,0.377,0.95638,,F-43m
JVASP-58898,ThTa2O7,FAILED_JVASP-58898.cif,2.758,3.845,mBJ,1.087,-3.39426,,C2/m
JVASP-15385,UPS,FAILED_JVASP-15385.cif,0.0,0.0,mBJ,0.0,-1.26622,,P4/nmm
JVASP-15341,Sc3TlC,FAILED_JVASP-15341.cif,0.0,0.0,mBJ,0.0,-0.69013,,Pm-3m
JVASP-7633,SiO2,FAILED_JVASP-7633.cif,2.21,3.209,mBJ,0.999,-1.69471,,Fm-3m
JVASP-2634,Th2SN2,FAILED_JVASP-2634.cif,1.717,2.378,mBJ,0.661,-2.19983,,P-3m1
JVASP-7678,MgSe,FAILED_JVASP-7678.cif,2.117,3.365,mBJ,1.248,-1.3488,,Fm-3m
JVASP-13092,BaC4O4,FAILED_JVASP-13092.cif,2.667,3.868,mBJ,1.201,-1.24473,,I4/mcm
JVASP-107373,LiSbN2,FAILED_JVASP-107373.cif,1.36,2.631,mBJ,1.271,-0.05467,,I-42d
JVASP-254,PbS,FAILED_JVASP-254.cif,0.564,1.298,mBJ,0.734,-0.63952,,Fm-3m
JVASP-51171,CdIrRu,FAILED_JVASP-51171.cif,0.0,0.0,mBJ,0.0,0.61117,,F-43m
JVASP-14306,NaMnP,FAILED_JVASP-14306.cif,0.0,0.0,mBJ,0.0,-0.46121,,P4/nmm
JVASP-58136,BaMgTi4O8,FAILED_JVASP-58136.cif,0.0,0.0,mBJ,0.0,-2.90854,,P-31m
JVASP-107106,K2NaNdI6,FAILED_JVASP-107106.cif,3.051,3.737,mBJ,0.686,-1.41177,,Fm-3m
JVASP-58994,SbCl3F2,FAILED_JVASP-58994.cif,1.606,2.97,mBJ,1.364,-1.29745,,I-4
JVASP-7717,TiPt,FAILED_JVASP-7717.cif,0.0,0.0,mBJ,0.0,-0.80572,,Pm-3m
JVASP-58900,Na3BN2,FAILED_JVASP-58900.cif,1.938,3.84,mBJ,1.902,-0.66768,,P2_1/c
JVASP-51320,BPd2Br,FAILED_JVASP-51320.cif,0.0,0.0,mBJ,0.0,0.96691,,F-43m
JVASP-22533,IF7,FAILED_JVASP-22533.cif,1.512,2.371,mBJ,0.859,-1.30663,,Aea2
JVASP-107546,MgTi2ZnO6,FAILED_JVASP-107546.cif,3.194,3.768,mBJ,0.574,-2.9093,,R3
JVASP-50884,ScBiO3,FAILED_JVASP-50884.cif,3.264,4.393,mBJ,1.129,-2.57921,,R3c
JVASP-29114,Te3MoWS,FAILED_JVASP-29114.cif,0.031,0.096,mBJ,0.065,-0.2639,,P3m1
JVASP-7758,P,FAILED_JVASP-7758.cif,2.344,2.91,mBJ,0.566,0.17259,,C2/m
JVASP-1498,NaInO2,FAILED_JVASP-1498.cif,2.154,4.103,mBJ,1.949,-1.81479,,R-3m
JVASP-107598,K2NaInI6,FAILED_JVASP-107598.cif,0.561,1.586,mBJ,1.025,-1.01757,,Fm-3m
JVASP-13916,AlCl3,FAILED_JVASP-13916.cif,5.254,6.462,mBJ,1.208,-1.60089,,C2/m
JVASP-107047,MgZn2O3,FAILED_JVASP-107047.cif,1.905,3.583,mBJ,1.678,-1.99132,,P-3m1
JVASP-3081,NaAlTe2,FAILED_JVASP-3081.cif,1.641,2.291,mBJ,0.65,-0.73912,,I4/mcm
JVASP-105340,YbZnCuAs2,FAILED_JVASP-105340.cif,0.0,0.0,mBJ,0.0,-0.5977,,P3m1
JVASP-13848,YbSe,FAILED_JVASP-13848.cif,2.283,3.628,mBJ,1.345,-2.00943,,P6_3/mmc
JVASP-107667,YbLi2Tl,FAILED_JVASP-107667.cif,0.0,0.0,mBJ,0.0,-0.29153,,Fm-3m
JVASP-106597,Sc2PtRh,FAILED_JVASP-106597.cif,0.0,0.0,mBJ,0.0,-1.18258,,Fm-3m
JVASP-5299,KBH4,FAILED_JVASP-5299.cif,1.3,2.501,mBJ,1.201,-0.14318,,Pnma
JVASP-18542,Dy3AlC,FAILED_JVASP-18542.cif,0.0,0.0,mBJ,0.0,-0.44461,,Pm-3m
JVASP-19087,NaNO,FAILED_JVASP-19087.cif,3.387,4.198,mBJ,0.811,-0.84943,,P2_1/c
JVASP-7634,GeSe2,FAILED_JVASP-7634.cif,1.236,2.055,mBJ,0.819,-0.22707,,I-42d
JVASP-2277,CdGa2Se4,FAILED_JVASP-2277.cif,1.318,2.723,mBJ,1.405,-0.61113,,I-4
JVASP-58902,NdTa3O9,FAILED_JVASP-58902.cif,3.367,4.404,mBJ,1.037,-3.24589,,P2_1/m
JVASP-19856,CaPd2,FAILED_JVASP-19856.cif,0.0,0.0,mBJ,0.0,-0.76268,,Fd-3m
JVASP-18863,ZrNiBi,FAILED_JVASP-18863.cif,0.0,0.579,mBJ,0.579,-0.33591,,F-43m
JVASP-1585,KTlO2,FAILED_JVASP-1585.cif,0.995,2.153,mBJ,1.158,-1.21774,,R-3m
JVASP-51245,BaSiTc2,FAILED_JVASP-51245.cif,0.0,0.0,mBJ,0.0,0.9948,,F-43m
JVASP-18771,V3Pb,FAILED_JVASP-18771.cif,0.0,0.0,mBJ,0.0,0.25739,,Pm-3n
JVASP-7842,AlCr2,FAILED_JVASP-7842.cif,0.0,0.0,mBJ,0.0,-0.12771,,I4/mmm
JVASP-22736,NaCaAs,FAILED_JVASP-22736.cif,1.796,2.6,mBJ,0.804,-0.95295,,F-43m
JVASP-52861,HPbClO,FAILED_JVASP-52861.cif,3.433,4.612,mBJ,1.179,-1.20462,,Pnma
JVASP-49358,SrSc2S4,FAILED_JVASP-49358.cif,1.343,1.902,mBJ,0.559,-2.2098,,Pnma
JVASP-106770,MnNiSb2,FAILED_JVASP-106770.cif,0.0,0.0,mBJ,0.0,-0.0743,,P-3m1
JVASP-13004,Cd2P3I,FAILED_JVASP-13004.cif,1.098,1.71,mBJ,0.612,-0.25103,,C2/c
JVASP-12089,HgBrO3,FAILED_JVASP-12089.cif,3.015,3.859,mBJ,0.844,0.07066,,C2/c