material_id,formula,cif_path,pbe_bandgap,hse_bandgap,gap_type,correction,formation_energy,total_energy,spacegroup
JVASP-3000,BaMg2Sb2,FAILED_JVASP-3000.cif,0.912,1.275,mBJ,0.363,-0.85211,,P-3m1
JVASP-12177,Sb,FAILED_JVASP-12177.cif,0.0,0.0,mBJ,0.0,0.30369,,P6_3/mmc
JVASP-101516,Rb2AgPdF6,FAILED_JVASP-101516.cif,0.0,0.0,mBJ,0.0,-2.07486,,Fm-3m
JVASP-1780,LiIn2Rh,FAILED_JVASP-1780.cif,0.0,0.0,mBJ,0.0,-0.40097,,Fm-3m
JVASP-19880,NdIr2,FAILED_JVASP-19880.cif,0.0,0.0,mBJ,0.0,-0.76908,,Fd-3m
JVASP-18926,LuS,FAILED_JVASP-18926.cif,0.0,1.694,mBJ,1.694,-2.02091,,Fm-3m
JVASP-100513,TmRh3,FAILED_JVASP-100513.cif,0.0,0.0,mBJ,0.0,-0.60246,,Pm-3m
JVASP-101013,PmHoCu2,FAILED_JVASP-101013.cif,0.0,0.0,mBJ,0.0,-0.27619,,Fm-3m
JVASP-100573,K2RbScCl6,FAILED_JVASP-100573.cif,4.045,4.5,mBJ,0.455,-2.06753,,Fm-3m
JVASP-2916,BaCuSeF,FAILED_JVASP-2916.cif,1.56,2.072,mBJ,0.512,-2.1348,,P4/nmm
JVASP-101068,Bi4Au,FAILED_JVASP-101068.cif,0.0,0.0,mBJ,0.0,0.25573,,Fd-3m
JVASP-14721,NdCo2,FAILED_JVASP-14721.cif,0.0,0.0,mBJ,0.0,-0.07751,,Fd-3m
JVASP-42170,Li2FeO2F,FAILED_JVASP-42170.cif,0.0,0.0,mBJ,0.0,-2.08882,,C2/c
JVASP-100707,AcInAg2,FAILED_JVASP-100707.cif,0.0,0.0,mBJ,0.0,-0.33489,,Fm-3m
JVASP-106234,CdAg3,FAILED_JVASP-106234.cif,0.0,0.0,mBJ,0.0,-0.0476,,I4/mmm
JVASP-103065,NaBi3I2O4,FAILED_JVASP-103065.cif,2.002,3.259,mBJ,1.257,-1.31966,,Amm2
JVASP-100395,GeTe2Pb,FAILED_JVASP-100395.cif,0.569,0.665,mBJ,0.096,-0.19255,,P4/mmm
JVASP-102743,Ho2TeS2,FAILED_JVASP-102743.cif,1.799,2.42,mBJ,0.621,-1.96617,,Immm
JVASP-100449,Li2CoN2,FAILED_JVASP-100449.cif,0.0,0.0,mBJ,0.0,-0.25127,,P-3m1
JVASP-103715,HfTeSe,FAILED_JVASP-103715.cif,0.0,0.191,mBJ,0.191,-1.11766,,P3m1
JVASP-101119,Sn3Sb,FAILED_JVASP-101119.cif,0.0,0.0,mBJ,0.0,0.02589,,C222
JVASP-102643,ZrInPd2,FAILED_JVASP-102643.cif,0.0,0.0,mBJ,0.0,-0.61825,,P4/mmm
JVASP-1480,GaCuO2,FAILED_JVASP-1480.cif,1.01,1.172,mBJ,0.162,-1.47735,,R-3m
JVASP-19835,DyPd3,FAILED_JVASP-19835.cif,0.0,0.0,mBJ,0.0,-0.92774,,Pm-3m
JVASP-14675,NbGe2,FAILED_JVASP-14675.cif,0.0,0.0,mBJ,0.0,-0.28612,,P6_222
JVASP-102062,K2TlAsF6,FAILED_JVASP-102062.cif,2.762,3.61,mBJ,0.848,-2.36761,,Fm-3m
JVASP-99608,Tl3Zn,FAILED_JVASP-99608.cif,0.0,0.0,mBJ,0.0,0.12816,,Pm-3m
JVASP-102691,PrTl2InTe4,FAILED_JVASP-102691.cif,1.108,1.302,mBJ,0.194,-0.67075,,I-42m
JVASP-2445,Tl3VS4,FAILED_JVASP-2445.cif,1.892,1.809,mBJ,-0.083,-0.69536,,I-43m
JVASP-102439,LiHF2,FAILED_JVASP-102439.cif,8.336,12.09,mBJ,3.754,-2.42649,,C2/m
JVASP-102495,HfNbRu2,FAILED_JVASP-102495.cif,0.0,0.0,mBJ,0.0,-0.48592,,Fm-3m
JVASP-12908,B6P,FAILED_JVASP-12908.cif,2.553,2.724,mBJ,0.171,-0.30569,,R-3m
JVASP-14985,DySi,FAILED_JVASP-14985.cif,0.0,0.0,mBJ,0.0,-0.8044,,Cmcm
JVASP-101517,Rb2YAgF6,FAILED_JVASP-101517.cif,2.742,4.924,mBJ,2.182,-3.12147,,Fm-3m
JVASP-2919,FeSi4P4,FAILED_JVASP-2919.cif,1.101,1.082,mBJ,-0.019,-0.28757,,P1
JVASP-1306,BaO,FAILED_JVASP-1306.cif,2.048,3.411,mBJ,1.363,-2.74583,,Fm-3m
JVASP-18427,CoH2O2,FAILED_JVASP-18427.cif,0.0,0.0,mBJ,0.0,-0.83736,,P-3m1
JVASP-102799,Ca2Ga7Ag,FAILED_JVASP-102799.cif,0.0,0.0,mBJ,0.0,-0.40194,,P-4m2
JVASP-103142,ZrSnN2,FAILED_JVASP-103142.cif,0.654,1.258,mBJ,0.604,-0.83512,,P4/nmm
JVASP-101429,Si2Ir,FAILED_JVASP-101429.cif,0.0,0.0,mBJ,0.0,-0.40585,,Fm-3m
JVASP-18450,NiI2,FAILED_JVASP-18450.cif,0.0,0.0,mBJ,0.0,-0.09994,,R-3m
JVASP-101556,Dy3Bi,FAILED_JVASP-101556.cif,0.0,0.0,mBJ,0.0,-0.36412,,Pm-3m
JVASP-100574,K2TlGaCl6,FAILED_JVASP-100574.cif,2.164,3.151,mBJ,0.987,-1.42368,,Fm-3m
JVASP-14344,Cr2NiS4,FAILED_JVASP-14344.cif,0.0,0.0,mBJ,0.0,-0.64327,,C2/m
JVASP-3003,CaZn2P2,FAILED_JVASP-3003.cif,0.906,1.421,mBJ,0.515,-0.76804,,P-3m1
JVASP-49890,Ba4IrO6,FAILED_JVASP-49890.cif,0.0,0.0,mBJ,0.0,-2.35212,,R-3c
JVASP-2769,SnF3,FAILED_JVASP-2769.cif,2.94,3.784,mBJ,0.844,-2.46216,,Fm-3m
JVASP-103068,Na2CaSi,FAILED_JVASP-103068.cif,0.293,0.757,mBJ,0.464,-0.14645,,F-43m
JVASP-100396,GeTePb2Se2,FAILED_JVASP-100396.cif,0.687,0.923,mBJ,0.236,-0.40902,,P3m1
JVASP-16066,Sc3GaC,FAILED_JVASP-16066.cif,0.0,0.0,mBJ,0.0,-0.73051,,Pm-3m
JVASP-15574,TbSi2Os2,FAILED_JVASP-15574.cif,0.0,0.0,mBJ,0.0,-0.69365,,I4/mmm
JVASP-19934,DySi2,FAILED_JVASP-19934.cif,0.0,0.0,mBJ,0.0,-0.46293,,P6/mmm
JVASP-14951,PuAs,FAILED_JVASP-14951.cif,0.0,0.0,mBJ,0.0,-1.25053,,Fm-3m
JVASP-100962,DyMg2,FAILED_JVASP-100962.cif,0.0,0.0,mBJ,0.0,-0.08289,,P6/mmm
JVASP-104499,KNaSe,FAILED_JVASP-104499.cif,2.196,3.813,mBJ,1.617,-1.06463,,F-43m
JVASP-4098,K4CdAs2,FAILED_JVASP-4098.cif,0.684,1.916,mBJ,1.232,-0.49556,,R-3m
JVASP-102990,TiAu3,FAILED_JVASP-102990.cif,0.0,0.0,mBJ,0.0,-0.30032,,I4/mmm
JVASP-100763,Y2AlAg,FAILED_JVASP-100763.cif,0.0,0.0,mBJ,0.0,-0.4167,,Fm-3m
JVASP-102644,Zn2SeS,FAILED_JVASP-102644.cif,1.406,2.786,mBJ,1.38,-0.80299,,P-4m2
JVASP-102127,SmZr,FAILED_JVASP-102127.cif,0.0,0.0,mBJ,0.0,0.16469,,P-6m2
JVASP-103716,Hf4AgPd,FAILED_JVASP-103716.cif,0.0,0.0,mBJ,0.0,-0.34333,,P4/mmm
JVASP-102377,K2NdCuI6,FAILED_JVASP-102377.cif,1.876,1.953,mBJ,0.077,-1.13987,,Fm-3m
JVASP-101015,Sc2CdAu,FAILED_JVASP-101015.cif,0.0,0.0,mBJ,0.0,-0.58692,,Fm-3m
JVASP-100894,K2RbAsI6,FAILED_JVASP-100894.cif,2.146,2.737,mBJ,0.591,-0.89519,,Fm-3m
JVASP-100850,Bi2TeSe2,FAILED_JVASP-100850.cif,0.295,0.586,mBJ,0.291,-0.36564,,R3m
JVASP-2772,BaSnF6,FAILED_JVASP-2772.cif,5.221,7.418,mBJ,2.197,-3.21657,,R-3
JVASP-14676,AlRh,FAILED_JVASP-14676.cif,0.0,0.0,mBJ,0.0,-1.07361,,Pm-3m
JVASP-101768,NiF2,FAILED_JVASP-101768.cif,0.474,0.569,mBJ,0.095,-1.77548,,Pnnm
JVASP-101430,ErBrO,FAILED_JVASP-101430.cif,4.377,6.12,mBJ,1.743,-3.13256,,P4/nmm
JVASP-100518,YbEu3,FAILED_JVASP-100518.cif,0.0,0.0,mBJ,0.0,0.04633,,I4/mmm
JVASP-49806,CaTm2O4,FAILED_JVASP-49806.cif,3.404,4.962,mBJ,1.558,-3.68768,,Cmcm
JVASP-102064,K2NaBiF6,FAILED_JVASP-102064.cif,4.99,6.815,mBJ,1.825,-2.77738,,Fm-3m
JVASP-2235,KSnAs,FAILED_JVASP-2235.cif,0.396,1.339,mBJ,0.943,-0.46805,,P6_3mc
JVASP-100629,KRb2InF6,FAILED_JVASP-100629.cif,5.613,8.44,mBJ,2.827,-2.89926,,I4/m
JVASP-100764,Xe,FAILED_JVASP-100764.cif,6.148,7.613,mBJ,1.465,4e-05,,P6_3/mmc
JVASP-101121,Sm2SbS,FAILED_JVASP-101121.cif,0.0,0.0,mBJ,0.0,-1.59568,,P4/mmm
JVASP-101557,ErBi3,FAILED_JVASP-101557.cif,0.0,0.0,mBJ,0.0,-0.28061,,Pm-3m
JVASP-102645,ZnSnAs2,FAILED_JVASP-102645.cif,0.0,0.0,mBJ,0.0,-0.15685,,R3m
JVASP-102301,Tl3GaF6,FAILED_JVASP-102301.cif,3.296,4.188,mBJ,0.892,-2.25716,,Fm-3m
JVASP-102381,K2InAsF6,FAILED_JVASP-102381.cif,1.899,2.224,mBJ,0.325,-2.3756,,Fm-3m
JVASP-15285,ZrAlCo2,FAILED_JVASP-15285.cif,0.0,0.0,mBJ,0.0,-0.55349,,Fm-3m
JVASP-101377,MgSi2,FAILED_JVASP-101377.cif,0.0,0.0,mBJ,0.0,0.18614,,C2/m
JVASP-101073,ZrTiPb2O6,FAILED_JVASP-101073.cif,2.801,3.062,mBJ,0.261,-2.61316,,Cm
JVASP-2775,BaTiF6,FAILED_JVASP-2775.cif,4.284,4.2,mBJ,-0.084,-3.82715,,R-3m
JVASP-51193,CrGaTe,FAILED_JVASP-51193.cif,0.0,0.0,mBJ,0.0,0.56446,,F-43m
JVASP-15364,DyGe2Rh2,FAILED_JVASP-15364.cif,0.0,0.0,mBJ,0.0,-0.85233,,I4/mmm
JVASP-104500,Li3RhF6,FAILED_JVASP-104500.cif,2.031,2.576,mBJ,0.545,-2.36855,,Fm-3m
JVASP-100851,CaY2Te4,FAILED_JVASP-100851.cif,0.622,0.928,mBJ,0.306,-1.56278,,P2/m
JVASP-3459,In2HgSe4,FAILED_JVASP-3459.cif,0.516,1.639,mBJ,1.123,-0.3951,,I-4
JVASP-19913,NbZn3,FAILED_JVASP-19913.cif,0.0,0.0,mBJ,0.0,-0.16544,,Pm-3m
JVASP-103717,Hf3ScSi4,FAILED_JVASP-103717.cif,0.0,0.0,mBJ,0.0,-0.75267,,Pm
JVASP-54717,H7BrO3,FAILED_JVASP-54717.cif,4.259,6.429,mBJ,2.17,-0.8782,,P1
JVASP-15575,FeCo2Si,FAILED_JVASP-15575.cif,0.0,0.0,mBJ,0.0,-0.27442,,Fm-3m
JVASP-15161,TbAlPd,FAILED_JVASP-15161.cif,0.0,0.0,mBJ,0.0,-0.89835,,P-62m
JVASP-14677,Sc,FAILED_JVASP-14677.cif,0.0,0.0,mBJ,0.0,0.04627,,Fm-3m
JVASP-100805,SrIn3Hg,FAILED_JVASP-100805.cif,0.0,0.0,mBJ,0.0,-0.29478,,I4mm
JVASP-101431,TbBiPt,FAILED_JVASP-101431.cif,0.0,0.0,mBJ,0.0,-1.0557,,F-43m
JVASP-103445,Na4TeSe,FAILED_JVASP-103445.cif,1.989,3.522,mBJ,1.533,-1.0688,,P4/mmm
JVASP-50880,In2HgO4,FAILED_JVASP-50880.cif,0.273,1.727,mBJ,1.454,-1.28617,,Fd-3m
JVASP-5668,TaCl4,FAILED_JVASP-5668.cif,1.101,1.695,mBJ,0.594,-1.352,,C2/m
JVASP-4861,YbGa2,FAILED_JVASP-4861.cif,0.0,0.0,mBJ,0.0,-0.59077,,P6/mmm
JVASP-100708,AgGe3,FAILED_JVASP-100708.cif,0.0,0.0,mBJ,0.0,0.28287,,I4/mmm
JVASP-19007,ZnP2,FAILED_JVASP-19007.cif,1.473,2.059,mBJ,0.586,-0.26408,,P4_12_12
JVASP-48135,Fe4OF7,FAILED_JVASP-48135.cif,0.0,0.0,mBJ,0.0,-1.95786,,Cm
JVASP-103335,Yb2H6Ru,FAILED_JVASP-103335.cif,2.682,2.794,mBJ,0.112,-0.7138,,Fm-3m
JVASP-15210,TmSnAu,FAILED_JVASP-15210.cif,0.04,0.075,mBJ,0.035,-0.85237,,F-43m
JVASP-102180,Sr2MnGaO5F,FAILED_JVASP-102180.cif,0.0,0.0,mBJ,0.0,-2.61135,,Pmmm
JVASP-104560,Bi3Au,FAILED_JVASP-104560.cif,0.0,0.0,mBJ,0.0,0.13534,,I4/mmm
JVASP-101184,InGaP2,FAILED_JVASP-101184.cif,0.423,1.481,mBJ,1.058,-0.29159,,R3m
JVASP-100519,NaScTl2F6,FAILED_JVASP-100519.cif,4.914,5.742,mBJ,0.828,-3.05106,,Fm-3m
JVASP-100576,RbAuF3,FAILED_JVASP-100576.cif,0.0,0.0,mBJ,0.0,-1.77751,,Pm-3m
JVASP-102802,Al4Ni3Pt,FAILED_JVASP-102802.cif,0.0,0.0,mBJ,0.0,-0.73345,,P4/mmm
JVASP-42890,Er2TlCd,FAILED_JVASP-42890.cif,0.0,0.0,mBJ,0.0,-0.34256,,Fm-3m
JVASP-101074,ZnCdTe2,FAILED_JVASP-101074.cif,0.511,1.676,mBJ,1.165,-0.42575,,R3m
JVASP-103257,HfH3,FAILED_JVASP-103257.cif,0.0,0.0,mBJ,0.0,-0.21527,,P6_3/mmc
JVASP-28833,Te4MoW3Se2S2,FAILED_JVASP-28833.cif,0.141,0.359,mBJ,0.218,-0.30474,,P3m1
JVASP-18428,CrO2,FAILED_JVASP-18428.cif,0.0,0.0,mBJ,0.0,-1.89202,,R-3m
JVASP-2199,MgSiP2,FAILED_JVASP-2199.cif,1.458,2.236,mBJ,0.778,-0.48997,,I-42d
JVASP-2547,Na2AgSb,FAILED_JVASP-2547.cif,0.756,1.425,mBJ,0.669,-0.39531,,Cmcm
JVASP-102445,ZrZnCo2,FAILED_JVASP-102445.cif,0.0,0.0,mBJ,0.0,-0.33553,,Fm-3m
JVASP-50964,BaSr2I6,FAILED_JVASP-50964.cif,3.872,4.781,mBJ,0.909,-1.7726,,P-31m
JVASP-16210,CoTe2,FAILED_JVASP-16210.cif,0.0,0.0,mBJ,0.0,-0.16864,,Pnnm
JVASP-101122,Si3P3Ir,FAILED_JVASP-101122.cif,1.017,1.357,mBJ,0.34,-0.36017,,P1
JVASP-99652,SmZnCuP2,FAILED_JVASP-99652.cif,0.0,0.208,mBJ,0.208,-0.79725,,P3m1
JVASP-43605,BeCrO4,FAILED_JVASP-43605.cif,1.972,2.324,mBJ,0.352,-2.12478,,C2/m
JVASP-43871,VO2,FAILED_JVASP-43871.cif,0.0,0.0,mBJ,0.0,-2.45016,,C2/m
JVASP-3240,ZnPbF6,FAILED_JVASP-3240.cif,1.894,2.851,mBJ,0.957,-2.14645,,R-3
JVASP-102695,Pr2Ni3P4,FAILED_JVASP-102695.cif,0.0,0.0,mBJ,0.0,-1.01529,,P-4m2
JVASP-110,BaTiO3,FAILED_JVASP-110.cif,1.749,2.173,mBJ,0.424,-3.35196,,P4mm
JVASP-102131,Ti2IrRu,FAILED_JVASP-102131.cif,0.0,0.0,mBJ,0.0,-0.8087,,Fm-3m
JVASP-2778,Sr4P2O,FAILED_JVASP-2778.cif,1.221,1.953,mBJ,0.732,-1.73363,,I4/mmm
JVASP-49807,Hf3N4,FAILED_JVASP-49807.cif,1.16,1.963,mBJ,0.803,-1.7928,,R-3m
JVASP-101670,Zr2Al3Zn,FAILED_JVASP-101670.cif,0.0,0.0,mBJ,0.0,-0.52101,,R-3m
JVASP-100966,GaCuPd2,FAILED_JVASP-100966.cif,0.0,0.0,mBJ,0.0,-0.45181,,Fm-3m
JVASP-100766,YHoIn2,FAILED_JVASP-100766.cif,0.0,0.0,mBJ,0.0,-0.49166,,Fm-3m
JVASP-102383,K2InHgF6,FAILED_JVASP-102383.cif,0.0,0.867,mBJ,0.867,-2.359,,Fm-3m
JVASP-50378,Sr2CaI6,FAILED_JVASP-50378.cif,3.634,4.469,mBJ,0.835,-1.71919,,P4_2/mnm
JVASP-106257,Li3Au,FAILED_JVASP-106257.cif,0.0,0.0,mBJ,0.0,-0.45167,,I4/mmm
JVASP-100807,SrCdPb,FAILED_JVASP-100807.cif,0.0,0.0,mBJ,0.0,-0.46225,,C2/m
JVASP-102302,ThSiRu2C,FAILED_JVASP-102302.cif,0.0,0.0,mBJ,0.0,-0.62699,,Cmcm
JVASP-102446,ZrSiRu2,FAILED_JVASP-102446.cif,0.184,0.171,mBJ,-0.013,-0.69041,,Fm-3m
JVASP-100710,Ca2ZnIn,FAILED_JVASP-100710.cif,0.0,0.0,mBJ,0.0,-0.44455,,Fm-3m
JVASP-101521,Rb2NaTlI6,FAILED_JVASP-101521.cif,0.0,0.469,mBJ,0.469,-0.95514,,Fm-3m
JVASP-102804,Al2ZnSe4,FAILED_JVASP-102804.cif,0.959,1.882,mBJ,0.923,-0.86104,,Pm
JVASP-102747,HfZrN2,FAILED_JVASP-102747.cif,0.0,0.0,mBJ,0.0,-1.95353,,R-3m
JVASP-20110,MnPt3,FAILED_JVASP-20110.cif,0.0,0.0,mBJ,0.0,-0.30744,,Pm-3m
JVASP-4498,FePS3,FAILED_JVASP-4498.cif,0.0,0.0,mBJ,0.0,-0.27897,,C2/m
JVASP-101018,Sr2MgIn,FAILED_JVASP-101018.cif,0.0,0.0,mBJ,0.0,-0.35028,,Fm-3m
JVASP-18452,BaFe2S4,FAILED_JVASP-18452.cif,0.0,0.0,mBJ,0.0,-1.01477,,I4/m
JVASP-19848,SiRh,FAILED_JVASP-19848.cif,0.0,0.0,mBJ,0.0,-0.71814,,Pnma
JVASP-100808,Sn2GeTe3,FAILED_JVASP-100808.cif,0.532,0.514,mBJ,-0.018,-0.23419,,P-3m1
JVASP-22719,RbMgF3,FAILED_JVASP-22719.cif,7.649,10.434,mBJ,2.785,-3.503,,Pm-3m
JVASP-103078,TbLiSe2,FAILED_JVASP-103078.cif,0.132,0.692,mBJ,0.56,-1.69822,,P4/mmm
JVASP-104615,Sr2HgGe,FAILED_JVASP-104615.cif,0.057,0.251,mBJ,0.194,-0.63682,,Fm-3m
JVASP-101719,GaSbO4,FAILED_JVASP-101719.cif,0.787,2.369,mBJ,1.582,-1.73314,,Cmmm
JVASP-15621,ThSi2Ni2,FAILED_JVASP-15621.cif,0.0,0.0,mBJ,0.0,-0.81323,,I4/mmm
JVASP-101075,ZnAg,FAILED_JVASP-101075.cif,0.0,0.0,mBJ,0.0,-0.03619,,P4/mmm
JVASP-19836,TmB2,FAILED_JVASP-19836.cif,0.0,0.0,mBJ,0.0,-0.68865,,P6/mmm
JVASP-1429,NaNO2,FAILED_JVASP-1429.cif,2.414,3.58,HSE,1.166,-0.95652,,Imm2
JVASP-100898,K2HgAsI6,FAILED_JVASP-100898.cif,0.0,0.0,mBJ,0.0,-0.65703,,Fm-3m
JVASP-14351,Rb2TeI6,FAILED_JVASP-14351.cif,1.424,1.751,mBJ,0.327,-0.81776,,P4/mnc
JVASP-103668,Zn2NiO3,FAILED_JVASP-103668.cif,0.083,0.392,mBJ,0.309,-1.19423,,Immm
JVASP-100968,DyTmCu2,FAILED_JVASP-100968.cif,0.0,0.0,mBJ,0.0,-0.33601,,Fm-3m
JVASP-102696,PdPb4Au,FAILED_JVASP-102696.cif,0.0,0.0,mBJ,0.0,-0.146,,I422
JVASP-14987,DyAs,FAILED_JVASP-14987.cif,0.0,0.0,mBJ,0.0,-1.58881,,Fm-3m
JVASP-103559,Na2AgRhF6,FAILED_JVASP-103559.cif,1.395,2.152,mBJ,0.757,-1.94191,,Fm-3m
JVASP-48136,LiCr2CoO6,FAILED_JVASP-48136.cif,0.0,0.0,mBJ,0.0,-1.82278,,Cm
JVASP-15060,ZrC,FAILED_JVASP-15060.cif,0.0,0.0,mBJ,0.0,-0.96724,,Fm-3m
JVASP-22686,Na2H6Pt,FAILED_JVASP-22686.cif,3.545,4.812,mBJ,1.267,-0.36116,,Fm-3m
JVASP-103451,MnAlFe2,FAILED_JVASP-103451.cif,0.0,0.0,mBJ,0.0,-0.11743,,F-43m
JVASP-100854,PmSe2,FAILED_JVASP-100854.cif,0.0,0.0,mBJ,0.0,-1.69913,,P4/nmm
JVASP-100767,Yb2InPb,FAILED_JVASP-100767.cif,0.0,0.0,mBJ,0.0,-0.58877,,Fm-3m
JVASP-2781,Sr4As2O,FAILED_JVASP-2781.cif,1.221,1.797,mBJ,0.576,-1.77542,,I4/mmm
JVASP-100585,Na2YCuCl6,FAILED_JVASP-100585.cif,1.626,2.639,mBJ,1.013,-1.63797,,Fm-3m
JVASP-49752,SrO,FAILED_JVASP-49752.cif,3.078,4.769,mBJ,1.691,-2.9335,,P6_3/mmc
JVASP-102501,K2CdAu,FAILED_JVASP-102501.cif,0.0,0.0,mBJ,0.0,-0.25348,,Fm-3m
JVASP-14602,Se,FAILED_JVASP-14602.cif,0.0,0.0,mBJ,0.0,0.53302,,Im-3m
JVASP-102546,PmAu3,FAILED_JVASP-102546.cif,0.0,0.0,mBJ,0.0,-0.72652,,Fm-3m
JVASP-101720,GaAgSnSe4,FAILED_JVASP-101720.cif,0.664,1.43,mBJ,0.766,-0.3997,,I-4
JVASP-99654,Ni2P2Se3S3,FAILED_JVASP-99654.cif,0.0,0.207,mBJ,0.207,-0.17472,,P1
JVASP-104505,K2LiNdF6,FAILED_JVASP-104505.cif,6.536,9.163,mBJ,2.627,-3.46169,,Fm-3m
JVASP-100633,VCu3Se2S2,FAILED_JVASP-100633.cif,1.016,1.125,mBJ,0.109,-0.558,,Cmm2
JVASP-102134,Tm2ZnPd,FAILED_JVASP-102134.cif,0.0,0.0,mBJ,0.0,-0.682,,Fm-3m
JVASP-19010,Sb2S3,FAILED_JVASP-19010.cif,1.318,1.887,mBJ,0.569,-0.33787,,Pnma
JVASP-102447,Ac2ZnAu,FAILED_JVASP-102447.cif,0.0,0.0,mBJ,0.0,-0.58389,,Fm-3m
JVASP-2922,K3AuO,FAILED_JVASP-2922.cif,0.519,1.787,mBJ,1.268,-0.92314,,Pm-3m
JVASP-103349,K3HoCl6,FAILED_JVASP-103349.cif,4.708,6.956,mBJ,2.248,-2.144,,Fm-3m
JVASP-101384,Rb3TmCl6,FAILED_JVASP-101384.cif,4.778,6.784,mBJ,2.006,-2.17535,,Fm-3m
JVASP-103619,Na3Cd,FAILED_JVASP-103619.cif,0.0,0.0,mBJ,0.0,-0.09533,,I4/mmm
JVASP-50727,YZr4O9,FAILED_JVASP-50727.cif,0.0,4.504,mBJ,4.504,-3.61032,,P1
JVASP-19821,MgB2,FAILED_JVASP-19821.cif,0.0,0.0,mBJ,0.0,-0.19412,,P6/mmm
JVASP-1366,Li3Sb,FAILED_JVASP-1366.cif,0.919,1.216,mBJ,0.297,-0.68249,,Fm-3m
JVASP-101564,HfMgPt2,FAILED_JVASP-101564.cif,0.0,0.0,mBJ,0.0,-1.06859,,Fm-3m
JVASP-106264,MnZnAu2,FAILED_JVASP-106264.cif,0.0,0.0,mBJ,0.0,-0.09602,,Fm-3m
JVASP-100855,PmS,FAILED_JVASP-100855.cif,0.0,0.0,mBJ,0.0,-2.17604,,Fm-3m
JVASP-102403,Rb2ScAuF6,FAILED_JVASP-102403.cif,1.581,3.339,mBJ,1.758,-2.92458,,Fm-3m
JVASP-100969,ErHfRu2,FAILED_JVASP-100969.cif,0.0,0.0,mBJ,0.0,-0.64636,,Fm-3m
JVASP-104145,H6C7S2,FAILED_JVASP-104145.cif,1.381,1.839,mBJ,0.458,0.05996,,P1
JVASP-19935,YP,FAILED_JVASP-19935.cif,0.0,0.0,mBJ,0.0,-1.76284,,Fm-3m
JVASP-102306,Mg2Sb3,FAILED_JVASP-102306.cif,0.0,0.0,mBJ,0.0,-0.15904,,P-3m1
JVASP-102805,B4MoIr,FAILED_JVASP-102805.cif,0.0,0.0,mBJ,0.0,-0.22431,,P-6m2
JVASP-102502,HoScAl2,FAILED_JVASP-102502.cif,0.0,0.0,mBJ,0.0,-0.44079,,Fm-3m
JVASP-5200,BiSeI,FAILED_JVASP-5200.cif,1.529,2.224,mBJ,0.695,-0.43535,,Pnma
JVASP-15326,CaMn2Sb2,FAILED_JVASP-15326.cif,0.0,0.0,mBJ,0.0,-0.13901,,P-3m1
JVASP-20084,BW2,FAILED_JVASP-20084.cif,0.0,0.0,mBJ,0.0,-0.21903,,I4/mcm
JVASP-100809,PrDyC4,FAILED_JVASP-100809.cif,0.0,0.0,mBJ,0.0,-0.26326,,P4/mmm
JVASP-44052,Mg3WO6,FAILED_JVASP-44052.cif,3.081,4.134,mBJ,1.053,-2.78067,,P2_1/c
JVASP-103670,YAgSe2,FAILED_JVASP-103670.cif,0.0,0.0,mBJ,0.0,-1.19463,,P4/mmm
JVASP-102649,Yb2AgPd,FAILED_JVASP-102649.cif,0.0,0.0,mBJ,0.0,-0.75835,,P4/mmm
JVASP-12113,FeClO,FAILED_JVASP-12113.cif,0.0,0.0,mBJ,0.0,-1.01452,,Pmmn
JVASP-14749,SiNi2,FAILED_JVASP-14749.cif,0.0,0.0,mBJ,0.0,-0.42304,,P6_3/mmc
JVASP-15028,NdPt2,FAILED_JVASP-15028.cif,0.0,0.0,mBJ,0.0,-1.07871,,Fd-3m
JVASP-3462,LiInTe2,FAILED_JVASP-3462.cif,1.354,2.29,mBJ,0.936,-0.63651,,I-42d
JVASP-104506,K2InHgI6,FAILED_JVASP-104506.cif,0.0,0.0,mBJ,0.0,-0.76758,,Fm-3m
JVASP-16067,Sc3InC,FAILED_JVASP-16067.cif,0.0,0.0,mBJ,0.0,-0.7369,,Pm-3m
JVASP-48582,Li6Mn5SbO12,FAILED_JVASP-48582.cif,0.0,0.0,mBJ,0.0,-1.85753,,C2/m
JVASP-102547,PmGePd2,FAILED_JVASP-102547.cif,0.0,0.0,mBJ,0.0,-0.67679,,Fm-3m
JVASP-103080,LiBi3Br2O4,FAILED_JVASP-103080.cif,2.452,2.402,mBJ,-0.05,-1.45572,,Amm2
JVASP-100769,Rb2NiAs2,FAILED_JVASP-100769.cif,0.275,0.373,mBJ,0.098,-0.46948,,Cmcm
JVASP-28387,Te2W,FAILED_JVASP-28387.cif,0.892,1.046,mBJ,0.154,-0.04398,,P6_3/mmc
JVASP-102254,K3TlF6,FAILED_JVASP-102254.cif,3.711,5.873,mBJ,2.162,-2.53293,,Fm-3m
JVASP-14603,As,FAILED_JVASP-14603.cif,0.0,0.0,mBJ,0.0,-0.0,,R-3m
JVASP-18453,U2Cl5O2,FAILED_JVASP-18453.cif,0.0,0.0,mBJ,0.0,-2.29812,,Cmmm
JVASP-104618,SrPmPt2,FAILED_JVASP-104618.cif,0.0,0.0,mBJ,0.0,-1.04637,,Fm-3m
JVASP-104104,HCF,FAILED_JVASP-104104.cif,6.178,8.376,mBJ,2.198,-0.82609,,Amm2
JVASP-102186,PrMnIn,FAILED_JVASP-102186.cif,0.0,0.0,mBJ,0.0,-0.02937,,P-6m2
JVASP-100904,K2ScAgF6,FAILED_JVASP-100904.cif,2.886,4.49,mBJ,1.604,-3.08332,,Fm-3m
JVASP-100970,ErMgRh2,FAILED_JVASP-100970.cif,0.0,0.0,mBJ,0.0,-0.80894,,Fm-3m
JVASP-103621,NaLi2Sn,FAILED_JVASP-103621.cif,0.0,0.0,mBJ,0.0,-0.38346,,Fm-3m
JVASP-22569,CsCu3O2,FAILED_JVASP-22569.cif,1.562,1.653,mBJ,0.091,-0.85343,,P-3m1
JVASP-43610,Na6MnO4,FAILED_JVASP-43610.cif,0.077,0.0,mBJ,-0.077,-1.43382,,P4_2/nmc
JVASP-51154,TaOsPb,FAILED_JVASP-51154.cif,0.0,0.0,mBJ,0.0,0.77318,,F-43m
JVASP-102082,Na2LiTiF6,FAILED_JVASP-102082.cif,0.0,6.923,mBJ,6.923,-3.15278,,Fm-3m
JVASP-101565,HfTaRu2,FAILED_JVASP-101565.cif,0.0,0.0,mBJ,0.0,-0.55819,,Fm-3m
JVASP-103351,Ba2ErUO6,FAILED_JVASP-103351.cif,0.964,3.731,mBJ,2.767,-3.52954,,Fm-3m
JVASP-100634,V6CoIr,FAILED_JVASP-100634.cif,0.0,0.0,mBJ,0.0,-0.3404,,Pm-3
JVASP-3006,CaCd2P2,FAILED_JVASP-3006.cif,0.833,1.769,mBJ,0.936,-0.62792,,P-3m1
JVASP-101623,Y2AlRu,FAILED_JVASP-101623.cif,0.0,0.0,mBJ,0.0,-0.42065,,Fm-3m
JVASP-102651,YBiTe3,FAILED_JVASP-102651.cif,1.064,1.266,mBJ,0.202,-0.85335,,R3m
JVASP-101672,ZnCdAg2,FAILED_JVASP-101672.cif,0.0,0.0,mBJ,0.0,-0.05553,,P4/mmm
JVASP-14604,Ba,FAILED_JVASP-14604.cif,0.0,0.0,mBJ,0.0,0.0,,Im-3m
JVASP-2928,RbLiSe,FAILED_JVASP-2928.cif,2.576,3.28,HSE,0.704,-1.3107,,P4/nmm
JVASP-100590,KRb2AsF6,FAILED_JVASP-100590.cif,4.741,5.901,mBJ,1.16,-2.6768,,Fm-3m
JVASP-100857,Sb4S3N2,FAILED_JVASP-100857.cif,0.394,0.547,mBJ,0.153,-0.07874,,C2/m
JVASP-100724,Ho2ZnRh,FAILED_JVASP-100724.cif,0.0,0.0,mBJ,0.0,-0.6652,,Fm-3m
JVASP-14679,VPt3,FAILED_JVASP-14679.cif,0.0,0.0,mBJ,0.0,-0.43114,,Pm-3m
JVASP-104667,ZnCdO2,FAILED_JVASP-104667.cif,0.046,1.505,mBJ,1.459,-1.31406,,P3m1
JVASP-101187,InAgS2,FAILED_JVASP-101187.cif,0.0,0.0,mBJ,0.0,-0.37067,,P3m1
JVASP-51113,SnIrSe2,FAILED_JVASP-51113.cif,0.0,0.0,mBJ,0.0,0.52358,,F-43m
JVASP-100772,TbMgGa,FAILED_JVASP-100772.cif,0.0,0.0,mBJ,0.0,-0.51432,,P-62m
JVASP-42172,BaLu2O4,FAILED_JVASP-42172.cif,2.97,4.398,mBJ,1.428,-3.5944,,Cmcm
JVASP-103159,Na2AgAsF6,FAILED_JVASP-103159.cif,1.916,3.706,mBJ,1.79,-2.05335,,Fm-3m
JVASP-102751,HfInPt2,FAILED_JVASP-102751.cif,0.0,0.0,mBJ,0.0,-0.83646,,P4/mmm
JVASP-101527,TaRhO4,FAILED_JVASP-101527.cif,0.0,0.151,mBJ,0.151,-2.10705,,Cmmm
JVASP-102602,Rb2P2Pt,FAILED_JVASP-102602.cif,0.675,1.011,mBJ,0.336,-0.60025,,Cmcm
JVASP-104564,Cu3Ag,FAILED_JVASP-104564.cif,0.0,0.0,mBJ,0.0,0.06828,,I4/mmm