material_id,formula,cif_path,pbe_bandgap,hse_bandgap,gap_type,correction,formation_energy,total_energy,spacegroup
JVASP-46763,Li2Co3SnO8,FAILED_JVASP-46763.cif,0.0,0.12,mBJ,0.12,-1.5051,,R3m
JVASP-100593,NiS2,FAILED_JVASP-100593.cif,0.0,0.0,mBJ,0.0,-0.33352,,P2_1/c
JVASP-20099,GaSb,FAILED_JVASP-20099.cif,0.0,0.593,mBJ,0.593,-0.14862,,F-43m
JVASP-99580,Mn2SnS4,FAILED_JVASP-99580.cif,0.0,0.0,mBJ,0.0,-0.52789,,P2/m
JVASP-100170,Cu3Rh,FAILED_JVASP-100170.cif,0.0,0.0,mBJ,0.0,0.0433,,I4/mmm
JVASP-15750,ScRu3C,FAILED_JVASP-15750.cif,0.0,0.0,mBJ,0.0,-0.28898,,Pm-3m
JVASP-100312,ZrTiCo4,FAILED_JVASP-100312.cif,0.0,0.0,mBJ,0.0,-0.34777,,F-43m
JVASP-99491,Mg5Hg,FAILED_JVASP-99491.cif,0.0,0.0,mBJ,0.0,-0.03428,,Amm2
JVASP-51466,NiRh2O4,FAILED_JVASP-51466.cif,0.0,0.0,mBJ,0.0,-0.82828,,Fd-3m
JVASP-96895,YbCu2Ge2,FAILED_JVASP-96895.cif,0.0,0.0,mBJ,0.0,-0.47816,,I4/mmm
JVASP-1465,ErTlS2,FAILED_JVASP-1465.cif,1.542,2.251,mBJ,0.709,-1.62371,,R-3m
JVASP-48134,LiP2WO8,FAILED_JVASP-48134.cif,0.0,2.498,mBJ,2.498,-2.25241,,C2/m
JVASP-22717,LiFeF4,FAILED_JVASP-22717.cif,0.0,0.0,mBJ,0.0,-2.37548,,Cmmm
JVASP-101439,GaFe3N,FAILED_JVASP-101439.cif,0.0,0.0,mBJ,0.0,-0.21577,,Pm-3m
JVASP-15681,CoCu2GeS4,FAILED_JVASP-15681.cif,0.0,0.0,mBJ,0.0,-0.35508,,I-42m
JVASP-99441,SiAg2P2,FAILED_JVASP-99441.cif,0.213,0.81,mBJ,0.597,-0.06615,,I-42d
JVASP-3951,Rb2PdBr6,FAILED_JVASP-3951.cif,0.515,1.343,mBJ,0.828,-1.05862,,Fm-3m
JVASP-14672,SiNi,FAILED_JVASP-14672.cif,0.0,0.0,mBJ,0.0,-0.42716,,Pnma
JVASP-14826,Dy,FAILED_JVASP-14826.cif,0.0,0.0,mBJ,0.0,0.01266,,P6_3/mmc
JVASP-51150,NbOsPb,FAILED_JVASP-51150.cif,0.0,0.0,mBJ,0.0,0.73413,,F-43m
JVASP-100313,ZrSc,FAILED_JVASP-100313.cif,0.0,0.0,mBJ,0.0,-0.00235,,P-6m2
JVASP-100464,Cr2HO4,FAILED_JVASP-100464.cif,0.0,0.0,mBJ,0.0,-1.87165,,P2/m
JVASP-100639,Ta2CrSi6,FAILED_JVASP-100639.cif,0.0,0.0,mBJ,0.0,-0.23691,,C222
JVASP-15203,SmBPd3,FAILED_JVASP-15203.cif,0.0,0.0,mBJ,0.0,-0.58181,,Pm-3m
JVASP-95456,H2O,FAILED_JVASP-95456.cif,5.715,8.571,mBJ,2.856,-0.98953,,P2_12_12_1
JVASP-99620,KNbO2F,FAILED_JVASP-99620.cif,0.0,0.0,mBJ,0.0,-2.66281,,P4/mmm
JVASP-99582,InAgTe2,FAILED_JVASP-99582.cif,0.0,0.0,mBJ,0.0,-0.15841,,P4/mmm
JVASP-95325,BaFeO3,FAILED_JVASP-95325.cif,0.0,0.0,mBJ,0.0,-2.13476,,Pm-3m
JVASP-18523,Ba3SnO,FAILED_JVASP-18523.cif,0.0,0.0,mBJ,0.0,-1.55559,,Pm-3m
JVASP-100264,ZrSbRu2,FAILED_JVASP-100264.cif,0.0,0.076,mBJ,0.076,-0.36922,,Fm-3m
JVASP-99391,TePb3,FAILED_JVASP-99391.cif,0.0,0.0,mBJ,0.0,-0.02715,,I4/mmm
JVASP-99537,LiCd2Ni,FAILED_JVASP-99537.cif,0.0,0.0,mBJ,0.0,-0.1711,,Fm-3m
JVASP-101440,ZrTiPb2O6,FAILED_JVASP-101440.cif,2.621,2.83,mBJ,0.209,-2.60106,,R3m
JVASP-4855,ErAgP2Se6,FAILED_JVASP-4855.cif,1.651,2.004,mBJ,0.353,-0.54348,,P-31c
JVASP-15566,ErSi2Rh2,FAILED_JVASP-15566.cif,0.0,0.0,mBJ,0.0,-1.05097,,I4/mmm
JVASP-14650,ThIr5,FAILED_JVASP-14650.cif,0.0,0.0,mBJ,0.0,-0.46068,,P6/mmm
JVASP-99911,TmAlCo4,FAILED_JVASP-99911.cif,0.0,0.0,mBJ,0.0,-0.28955,,P-6m2
JVASP-101441,ZrAl6Mo,FAILED_JVASP-101441.cif,0.0,0.0,mBJ,0.0,-0.37454,,P4/mmm
JVASP-100595,AlGaIr2,FAILED_JVASP-100595.cif,0.0,0.0,mBJ,0.0,-0.63942,,Fm-3m
JVASP-99493,TaSiRu2,FAILED_JVASP-99493.cif,0.0,0.0,mBJ,0.0,-0.38441,,Fm-3m
JVASP-15015,TbGa2,FAILED_JVASP-15015.cif,0.0,0.0,mBJ,0.0,-0.65699,,P6/mmm
JVASP-28453,WSe2,FAILED_JVASP-28453.cif,1.126,1.688,mBJ,0.562,-0.51795,,P-6m2
JVASP-1468,CaCN2,FAILED_JVASP-1468.cif,3.653,5.127,mBJ,1.474,-1.02425,,R-3m
JVASP-3954,SBr,FAILED_JVASP-3954.cif,1.707,2.638,mBJ,0.931,-0.05482,,Aea2
JVASP-14827,Cr,FAILED_JVASP-14827.cif,0.0,0.0,mBJ,0.0,0.39199,,P6_3/mmc
JVASP-17356,ZnBiF6,FAILED_JVASP-17356.cif,0.0,0.411,mBJ,0.411,-2.22655,,R-3
JVASP-19863,ScNi2,FAILED_JVASP-19863.cif,0.0,0.0,mBJ,0.0,-0.56607,,Fd-3m
JVASP-3231,BaLiP,FAILED_JVASP-3231.cif,0.977,1.667,mBJ,0.69,-1.03578,,P6_3/mmc
JVASP-14570,DyMn2,FAILED_JVASP-14570.cif,0.0,0.0,mBJ,0.0,0.10172,,Fd-3m
JVASP-99392,Tm3Ge,FAILED_JVASP-99392.cif,0.0,0.0,mBJ,0.0,-0.32443,,I4/mmm
JVASP-16125,ThSiAu,FAILED_JVASP-16125.cif,0.0,0.0,mBJ,0.0,-0.76457,,P-6m2
JVASP-15751,PrTe,FAILED_JVASP-15751.cif,0.0,0.0,mBJ,0.0,-1.38875,,Pm-3m
JVASP-50952,Tm2TiO5,FAILED_JVASP-50952.cif,3.087,3.529,mBJ,0.442,-3.63748,,Cmcm
JVASP-100467,LiFe2Cl2O2,FAILED_JVASP-100467.cif,0.0,0.0,mBJ,0.0,-1.27717,,Pmm2
JVASP-51107,NbCrCo,FAILED_JVASP-51107.cif,0.0,0.0,mBJ,0.0,0.7885,,F-43m
JVASP-1930,FeBr2,FAILED_JVASP-1930.cif,0.0,0.0,mBJ,0.0,-0.43331,,P-3m1
JVASP-102856,K2LiTiF6,FAILED_JVASP-102856.cif,0.0,6.59,mBJ,6.59,-3.29093,,Fm-3m
JVASP-14651,YC2,FAILED_JVASP-14651.cif,0.0,0.629,mBJ,0.629,-0.37354,,I4/mmm
JVASP-20077,HoHg,FAILED_JVASP-20077.cif,0.0,0.0,mBJ,0.0,-0.38644,,Pm-3m
JVASP-18667,TaGaCo2,FAILED_JVASP-18667.cif,0.0,0.0,mBJ,0.0,-0.33441,,Fm-3m
JVASP-103101,ErAgS2,FAILED_JVASP-103101.cif,0.0,0.0,mBJ,0.0,-1.33769,,P4/mmm
JVASP-99822,MnZnPt2,FAILED_JVASP-99822.cif,0.0,0.0,mBJ,0.0,-0.39761,,Fm-3m
JVASP-15453,YSi2Pd2,FAILED_JVASP-15453.cif,0.0,0.0,mBJ,0.0,-0.89586,,I4/mmm
JVASP-2334,KUO3,FAILED_JVASP-2334.cif,0.518,2.881,mBJ,2.363,-3.15858,,Pm-3m
JVASP-16158,USiAu,FAILED_JVASP-16158.cif,0.0,0.0,mBJ,0.0,-0.19328,,P-6m2
JVASP-15658,YbSi2Cu2,FAILED_JVASP-15658.cif,0.0,0.0,mBJ,0.0,-0.46747,,I4/mmm
JVASP-14829,Cr,FAILED_JVASP-14829.cif,0.0,0.0,mBJ,0.0,0.0,,Im-3m
JVASP-20100,TaNi2,FAILED_JVASP-20100.cif,0.0,0.0,mBJ,0.0,-0.35811,,I4/mmm
JVASP-100468,RbSrCO3F,FAILED_JVASP-100468.cif,4.248,7.361,mBJ,3.113,-2.56896,,P-6m2
JVASP-99393,Y2GaAg,FAILED_JVASP-99393.cif,0.0,0.0,mBJ,0.0,-0.52532,,Fm-3m
JVASP-99540,NdCdHg2,FAILED_JVASP-99540.cif,0.0,0.0,mBJ,0.0,-0.31363,,Fm-3m
JVASP-102088,Rb2TlIrF6,FAILED_JVASP-102088.cif,2.215,2.302,mBJ,0.087,-2.17703,,Fm-3m
JVASP-95153,H4SO5,FAILED_JVASP-95153.cif,5.926,8.321,mBJ,2.395,-1.09966,,P2_1/c
JVASP-50056,YScO3,FAILED_JVASP-50056.cif,4.433,5.599,mBJ,1.166,-3.83099,,Pnma
JVASP-15156,DyBRh3,FAILED_JVASP-15156.cif,0.0,0.0,mBJ,0.0,-0.80292,,Pm-3m
JVASP-15233,NaVSe2,FAILED_JVASP-15233.cif,0.0,0.0,mBJ,0.0,-0.91611,,R-3m
JVASP-1933,CdCl2,FAILED_JVASP-1933.cif,3.342,5.575,mBJ,2.233,-1.11527,,R-3m
JVASP-15278,TbBRh3,FAILED_JVASP-15278.cif,0.0,0.0,mBJ,0.0,-0.79207,,Pm-3m
JVASP-15996,PtO,FAILED_JVASP-15996.cif,0.0,0.0,mBJ,0.0,-0.39467,,P4_2/mmc
JVASP-50610,LiSiBiO4,FAILED_JVASP-50610.cif,3.651,4.768,mBJ,1.117,-2.28194,,Pna2_1
JVASP-314,TiO2,FAILED_JVASP-314.cif,2.027,2.478,mBJ,0.451,-3.2447,,I4_1/amd
JVASP-99668,Mg3Si2,FAILED_JVASP-99668.cif,0.0,0.0,mBJ,0.0,-0.02894,,C2/m
JVASP-51020,SrH4O3,FAILED_JVASP-51020.cif,4.545,6.855,mBJ,2.31,-1.602,,Pmc2_1
JVASP-99913,U2AsS,FAILED_JVASP-99913.cif,0.0,0.0,mBJ,0.0,-1.09775,,R-3m
JVASP-99584,Ge,FAILED_JVASP-99584.cif,0.0,0.0,mBJ,0.0,0.26034,,Cmmm
JVASP-57097,FeBiO3,FAILED_JVASP-57097.cif,0.0,0.0,mBJ,0.0,-1.26874,,Cm
JVASP-15358,HoAgSn,FAILED_JVASP-15358.cif,0.0,0.0,mBJ,0.0,-0.58914,,P6_3mc
JVASP-95642,AuF3,FAILED_JVASP-95642.cif,1.502,1.885,mBJ,0.383,-1.04575,,P6_122
JVASP-100643,Sc2Se3,FAILED_JVASP-100643.cif,0.796,1.172,mBJ,0.376,-1.7659,,Immm
JVASP-96839,AlH3,FAILED_JVASP-96839.cif,3.451,4.933,mBJ,1.482,-0.08307,,Pnnm
JVASP-103282,MgSc2Ir,FAILED_JVASP-103282.cif,0.0,0.0,mBJ,0.0,-0.61926,,Fm-3m
JVASP-1303,NdMg,FAILED_JVASP-1303.cif,0.0,0.0,mBJ,0.0,-0.10686,,Pm-3m
JVASP-100469,MnCuNiSn,FAILED_JVASP-100469.cif,0.0,0.0,mBJ,0.0,0.01366,,F-43m
JVASP-102090,Rb3GaI6,FAILED_JVASP-102090.cif,0.97,1.921,mBJ,0.951,-1.00875,,Fm-3m
JVASP-102148,ScPd2Pb,FAILED_JVASP-102148.cif,0.0,0.0,mBJ,0.0,-0.65502,,Fm-3m
JVASP-103371,TbBa2TaO6,FAILED_JVASP-103371.cif,3.447,4.525,mBJ,1.078,-3.42355,,Fm-3m
JVASP-99496,Zr2TcIr,FAILED_JVASP-99496.cif,0.0,0.0,mBJ,0.0,-0.76467,,Fm-3m
JVASP-99626,Fe2O3,FAILED_JVASP-99626.cif,0.409,0.734,mBJ,0.325,-1.44962,,R-3c
JVASP-15089,YbFe2Si2,FAILED_JVASP-15089.cif,0.0,0.0,mBJ,0.0,-0.54696,,I4/mmm
JVASP-100727,Yb2LiIn,FAILED_JVASP-100727.cif,0.0,0.0,mBJ,0.0,-0.30932,,Fm-3m
JVASP-15403,ScNi2Sn,FAILED_JVASP-15403.cif,0.0,0.0,mBJ,0.0,-0.57245,,Fm-3m
JVASP-100137,SrH2,FAILED_JVASP-100137.cif,1.678,2.955,mBJ,1.277,-0.61709,,P6_3/mmc
JVASP-43694,CdFeO3,FAILED_JVASP-43694.cif,0.0,0.0,mBJ,0.0,-1.25906,,Pnma
JVASP-103106,DyMn2SiGe,FAILED_JVASP-103106.cif,0.0,0.0,mBJ,0.0,-0.50635,,I4mm
JVASP-2523,KAuS,FAILED_JVASP-2523.cif,2.296,3.451,mBJ,1.155,-0.84006,,Cmcm
JVASP-18471,TiIN,FAILED_JVASP-18471.cif,0.0,0.0,mBJ,0.0,-1.26607,,Pmmn
JVASP-14652,MnV,FAILED_JVASP-14652.cif,0.0,0.0,mBJ,0.0,-0.28372,,Pm-3m
JVASP-99669,Bi2TeO2,FAILED_JVASP-99669.cif,0.0,0.479,mBJ,0.479,-1.01462,,I4/mmm
JVASP-99444,Sm2In3Cu,FAILED_JVASP-99444.cif,0.0,0.0,mBJ,0.0,-0.44493,,P3m1
JVASP-102861,Na2GaAgF6,FAILED_JVASP-102861.cif,1.464,4.814,mBJ,3.35,-2.36485,,Fm-3m
JVASP-287,SnO2,FAILED_JVASP-287.cif,0.0,1.057,mBJ,1.057,-1.09791,,P6_3/mmc
JVASP-18423,LiCuO2,FAILED_JVASP-18423.cif,0.0,0.0,mBJ,0.0,-1.19295,,R-3m
JVASP-18924,FePt3,FAILED_JVASP-18924.cif,0.0,0.0,mBJ,0.0,-0.16546,,Pm-3m
JVASP-19909,ZnTe,FAILED_JVASP-19909.cif,0.0,0.0,mBJ,0.0,-0.19657,,Fm-3m
JVASP-102203,KZnCuTe2,FAILED_JVASP-102203.cif,0.932,2.189,mBJ,1.257,-0.54427,,I-4m2
JVASP-20078,ThGe,FAILED_JVASP-20078.cif,0.0,0.0,mBJ,0.0,-0.82547,,Fm-3m
JVASP-95643,Sm2CN2O2,FAILED_JVASP-95643.cif,3.809,5.471,mBJ,1.662,-2.27951,,P-3m1
JVASP-15567,MnCo2Sb,FAILED_JVASP-15567.cif,0.0,0.0,mBJ,0.0,0.01231,,Fm-3m
JVASP-14717,SmRh,FAILED_JVASP-14717.cif,0.0,0.0,mBJ,0.0,-0.77515,,Pm-3m
JVASP-99732,CdHg3Te4,FAILED_JVASP-99732.cif,0.0,0.286,mBJ,0.286,-0.05562,,P-43m
JVASP-102149,RbO,FAILED_JVASP-102149.cif,0.0,0.0,mBJ,0.0,-0.7877,,C2/m
JVASP-100178,Eu2SbAu,FAILED_JVASP-100178.cif,0.0,0.0,mBJ,0.0,-0.84183,,Fm-3m
JVASP-103489,ErAgSe2,FAILED_JVASP-103489.cif,0.0,0.0,mBJ,0.0,-1.1403,,P4/mmm
JVASP-100931,Rb2ScInI6,FAILED_JVASP-100931.cif,1.726,1.726,mBJ,0.0,-1.22064,,Fm-3m
JVASP-52372,K2Mg2O3,FAILED_JVASP-52372.cif,3.311,5.567,mBJ,2.256,-2.25246,,P2_1/c
JVASP-99962,MgCdS2,FAILED_JVASP-99962.cif,0.116,1.36,mBJ,1.244,-1.07573,,P4/mmm
JVASP-103107,CoTeSe,FAILED_JVASP-103107.cif,0.0,0.0,mBJ,0.0,-0.23942,,P3m1
JVASP-3513,YbBr2,FAILED_JVASP-3513.cif,4.75,6.665,mBJ,1.915,-2.18358,,Pnnm
JVASP-99585,CrB2Mo,FAILED_JVASP-99585.cif,0.0,0.0,mBJ,0.0,-0.43157,,Amm2
JVASP-14673,Ag2O,FAILED_JVASP-14673.cif,0.146,0.508,mBJ,0.362,-0.16785,,Pn-3m
JVASP-99497,TbMgTl,FAILED_JVASP-99497.cif,0.0,0.0,mBJ,0.0,-0.34882,,P-62m
JVASP-100859,TaSN,FAILED_JVASP-100859.cif,0.224,0.811,mBJ,0.587,-1.00872,,P4/nmm
JVASP-100817,NaBiTe2,FAILED_JVASP-100817.cif,0.0,0.008,mBJ,0.008,-0.46743,,P4/mmm
JVASP-16103,NdCoC2,FAILED_JVASP-16103.cif,0.0,0.0,mBJ,0.0,-0.35477,,Cc
JVASP-101398,Eu2ZnRh,FAILED_JVASP-101398.cif,0.0,0.0,mBJ,0.0,-0.59919,,Fm-3m
JVASP-15101,HoSi2Ni2,FAILED_JVASP-15101.cif,0.0,0.0,mBJ,0.0,-0.81844,,I4/mmm
JVASP-100775,Nb2B2Mo,FAILED_JVASP-100775.cif,0.0,0.0,mBJ,0.0,-0.61254,,P4/mbm
JVASP-103204,KRb2AuBr6,FAILED_JVASP-103204.cif,0.0,0.0,mBJ,0.0,-1.06581,,Fm-3m
JVASP-99445,PrSO,FAILED_JVASP-99445.cif,0.874,1.791,mBJ,0.917,-2.66977,,Immm
JVASP-99543,Sc2NiPd,FAILED_JVASP-99543.cif,0.0,0.0,mBJ,0.0,-0.74026,,Fm-3m
JVASP-103490,CuBiSe2,FAILED_JVASP-103490.cif,0.046,0.667,mBJ,0.621,-0.20671,,R-3m
JVASP-57036,Sr2CoCl2O2,FAILED_JVASP-57036.cif,0.0,0.0,mBJ,0.0,-2.27739,,I4/mmm
JVASP-2526,KMgSb,FAILED_JVASP-2526.cif,1.403,1.967,mBJ,0.564,-0.67588,,P4/nmm
JVASP-100366,NaYZrS4,FAILED_JVASP-100366.cif,1.108,1.525,mBJ,0.417,-1.83871,,P2/m
JVASP-100536,TiB2W,FAILED_JVASP-100536.cif,0.0,0.0,mBJ,0.0,-0.88555,,Amm2
JVASP-16201,MgRhF6,FAILED_JVASP-16201.cif,0.0,0.203,mBJ,0.203,-2.40904,,R-3
JVASP-99629,SnGeO3,FAILED_JVASP-99629.cif,2.768,3.179,mBJ,0.411,-1.50294,,R-3
JVASP-100600,Hf3Hg,FAILED_JVASP-100600.cif,0.0,0.0,mBJ,0.0,0.02008,,I4/mmm
JVASP-99734,AuCl,FAILED_JVASP-99734.cif,1.844,2.627,mBJ,0.783,-0.17579,,P4_2/ncm
JVASP-103033,YUSb2,FAILED_JVASP-103033.cif,0.0,0.0,mBJ,0.0,-0.72012,,R-3m
JVASP-103109,CrIr,FAILED_JVASP-103109.cif,0.0,0.0,mBJ,0.0,-0.14539,,P-6m2
JVASP-18424,CuO2,FAILED_JVASP-18424.cif,0.0,0.0,mBJ,0.0,-0.18283,,R-3m
JVASP-102151,DyO2,FAILED_JVASP-102151.cif,0.0,2.329,mBJ,2.329,-3.04995,,I4/mmm
JVASP-100473,K2CuBiBr6,FAILED_JVASP-100473.cif,0.724,0.997,mBJ,0.273,-1.05834,,Fm-3m
JVASP-101400,HoMgCd2,FAILED_JVASP-101400.cif,0.0,0.0,mBJ,0.0,-0.3274,,Fm-3m
JVASP-103508,CaNdAlO4,FAILED_JVASP-103508.cif,3.173,4.581,mBJ,1.408,-3.46125,,I4mm
JVASP-3933,TmCl3,FAILED_JVASP-3933.cif,4.707,6.17,mBJ,1.463,-2.34018,,R-3c
JVASP-1936,XeF2,FAILED_JVASP-1936.cif,2.302,4.494,mBJ,2.192,-0.56445,,I4/mmm
JVASP-99671,SbOF3,FAILED_JVASP-99671.cif,1.466,2.719,mBJ,1.253,-1.95334,,Immm
JVASP-107802,K3AsI6,FAILED_JVASP-107802.cif,2.006,2.645,mBJ,0.639,-0.9129,,Fm-3m
JVASP-100068,Sr2AsAu,FAILED_JVASP-100068.cif,0.571,0.846,mBJ,0.275,-1.10016,,Fm-3m
JVASP-100730,LiNdZn2,FAILED_JVASP-100730.cif,0.0,0.0,mBJ,0.0,-0.3128,,Fm-3m
JVASP-99916,U2CuSi3,FAILED_JVASP-99916.cif,0.0,0.0,mBJ,0.0,-0.1989,,Pmm2
JVASP-103375,Fe2SiNi,FAILED_JVASP-103375.cif,0.0,0.0,mBJ,0.0,-0.23009,,F-43m
JVASP-50474,Er2Pt2O7,FAILED_JVASP-50474.cif,1.591,1.702,mBJ,0.111,-2.25683,,Fd-3m
JVASP-107803,K2TlAsI6,FAILED_JVASP-107803.cif,0.738,0.808,mBJ,0.07,-0.7562,,Fm-3m
JVASP-2658,Rb2Sn2O3,FAILED_JVASP-2658.cif,1.18,2.485,mBJ,1.305,-1.59883,,R-3m
JVASP-103208,Rb2NaGaCl6,FAILED_JVASP-103208.cif,2.772,4.65,mBJ,1.878,-1.70208,,Fm-3m
JVASP-99544,TmSiRu2C,FAILED_JVASP-99544.cif,0.0,0.0,mBJ,0.0,-0.59415,,Cmcm
JVASP-2529,NaMgSb,FAILED_JVASP-2529.cif,1.172,1.726,mBJ,0.554,-0.57515,,P4/nmm
JVASP-17357,MgSbF6,FAILED_JVASP-17357.cif,0.0,4.143,mBJ,4.143,-2.80681,,R-3
JVASP-99736,K2O,FAILED_JVASP-99736.cif,0.352,3.962,mBJ,3.61,-1.15446,,I4_1/amd
JVASP-3936,ThNCl,FAILED_JVASP-3936.cif,2.542,3.048,mBJ,0.506,-2.30638,,P4/nmm
JVASP-101099,TiAl6Mo,FAILED_JVASP-101099.cif,0.0,0.0,mBJ,0.0,-0.36164,,P4/mmm
JVASP-14718,MgAu,FAILED_JVASP-14718.cif,0.0,0.0,mBJ,0.0,-0.6562,,Pm-3m
JVASP-102866,Na3AlCl6,FAILED_JVASP-102866.cif,4.154,6.238,mBJ,2.084,-1.67575,,Fm-3m
JVASP-97025,CaFeAsF,FAILED_JVASP-97025.cif,0.0,0.0,mBJ,0.0,-1.93973,,P4/nmm
JVASP-28383,CN2,FAILED_JVASP-28383.cif,4.693,5.949,mBJ,1.256,0.6132,,P-42_1m
JVASP-101264,K2SbAu,FAILED_JVASP-101264.cif,1.05,1.627,mBJ,0.577,-0.59506,,Cmcm
JVASP-100777,Nd2Ni2Sn,FAILED_JVASP-100777.cif,0.0,0.0,mBJ,0.0,-0.56462,,Immm
JVASP-100143,AlGaCo2,FAILED_JVASP-100143.cif,0.0,0.0,mBJ,0.0,-0.4316,,Fm-3m
JVASP-103289,Pm,FAILED_JVASP-103289.cif,0.0,0.0,mBJ,0.0,0.0078,,Fm-3m
JVASP-17897,CaFeF6,FAILED_JVASP-17897.cif,0.0,0.0,mBJ,0.0,-2.81621,,R-3
JVASP-49796,ZrO2,FAILED_JVASP-49796.cif,3.914,4.481,mBJ,0.567,-3.64248,,I4_1/amd
JVASP-101592,NaCd2Rh,FAILED_JVASP-101592.cif,0.0,0.0,mBJ,0.0,-0.11293,,Fm-3m
JVASP-101212,CeSiNi,FAILED_JVASP-101212.cif,0.0,0.0,mBJ,0.0,-0.75783,,P-6m2
JVASP-15455,HfNi2Sn,FAILED_JVASP-15455.cif,0.0,0.0,mBJ,0.0,-0.48802,,Fm-3m
JVASP-3516,CaBr2,FAILED_JVASP-3516.cif,4.55,5.844,mBJ,1.294,-2.14847,,Pnnm
JVASP-100368,NaO2,FAILED_JVASP-100368.cif,0.0,0.0,mBJ,0.0,-0.82444,,R-3m
JVASP-100327,U2AsP,FAILED_JVASP-100327.cif,0.0,0.0,mBJ,0.0,-0.84989,,P4/mmm
JVASP-99782,Hg,FAILED_JVASP-99782.cif,0.0,0.0,mBJ,0.0,0.26194,,I4_1/amd
JVASP-18846,PrSnAu,FAILED_JVASP-18846.cif,0.0,0.0,mBJ,0.0,-0.85141,,P6_3mc
JVASP-102947,KRbAu2,FAILED_JVASP-102947.cif,0.217,0.206,mBJ,-0.011,-0.40356,,Fm-3m
JVASP-18751,NbSnRh,FAILED_JVASP-18751.cif,0.0,0.0,mBJ,0.0,0.35207,,F-43m
JVASP-99737,NaSbS2,FAILED_JVASP-99737.cif,0.112,0.116,mBJ,0.004,-0.75271,,I4_1/amd
JVASP-101402,HoTmAl2,FAILED_JVASP-101402.cif,0.0,0.0,mBJ,0.0,-0.41581,,Fm-3m
JVASP-2661,Al2HgS4,FAILED_JVASP-2661.cif,2.075,3.031,mBJ,0.956,-0.90854,,I-4
JVASP-107809,K2RbAlI6,FAILED_JVASP-107809.cif,1.926,2.769,mBJ,0.843,-1.09398,,Fm-3m
JVASP-101267,Hg,FAILED_JVASP-101267.cif,0.064,0.0,mBJ,-0.064,0.21763,,P6_3/mmc
JVASP-100603,HoMg2,FAILED_JVASP-100603.cif,0.0,0.0,mBJ,0.0,-0.05685,,P6/mmm
JVASP-102154,Sc6Te2Ir,FAILED_JVASP-102154.cif,0.0,0.0,mBJ,0.0,-0.86711,,P-62m
JVASP-100995,LiSm2Ga,FAILED_JVASP-100995.cif,0.0,0.0,mBJ,0.0,-0.3233,,Fm-3m
JVASP-103040,ThUSb4,FAILED_JVASP-103040.cif,0.0,0.0,mBJ,0.0,-0.53743,,P4mm
JVASP-101041,ZnInRh2,FAILED_JVASP-101041.cif,0.0,0.0,mBJ,0.0,-0.40718,,Fm-3m
JVASP-99966,LiGaO2,FAILED_JVASP-99966.cif,1.059,2.715,mBJ,1.656,-1.99287,,P4/mmm
JVASP-3942,ThIN,FAILED_JVASP-3942.cif,2.824,2.911,mBJ,0.087,-1.92817,,P4/nmm
JVASP-18925,Be5Pd,FAILED_JVASP-18925.cif,0.0,0.0,mBJ,0.0,-0.29906,,F-43m
JVASP-99783,Hf2RePd,FAILED_JVASP-99783.cif,0.0,0.0,mBJ,0.0,-0.58855,,Fm-3m
JVASP-100735,Mg2IrAu,FAILED_JVASP-100735.cif,0.0,0.0,mBJ,0.0,-0.51053,,Fm-3m
JVASP-99449,KNaMg2F6,FAILED_JVASP-99449.cif,6.906,10.441,mBJ,3.535,-3.46922,,P4/mmm
JVASP-103210,KRb2RuF6,FAILED_JVASP-103210.cif,0.0,0.0,mBJ,0.0,-2.53798,,Fm-3m
JVASP-107810,K2NaNdF6,FAILED_JVASP-107810.cif,6.139,9.447,mBJ,3.308,-3.40997,,Fm-3m
JVASP-100648,MnPt2,FAILED_JVASP-100648.cif,0.0,0.0,mBJ,0.0,0.00518,,P-3m1
JVASP-15320,BaAs2Ru2,FAILED_JVASP-15320.cif,0.0,0.0,mBJ,0.0,-0.6751,,I4/mmm
JVASP-100072,TaOF3,FAILED_JVASP-100072.cif,2.831,4.236,mBJ,1.405,-3.19443,,Immm
JVASP-4173,AuCl,FAILED_JVASP-4173.cif,1.73,2.493,mBJ,0.763,-0.18569,,I4_1/amd
JVASP-101643,YbCd2As2,FAILED_JVASP-101643.cif,0.079,0.95,mBJ,0.871,-0.64722,,P-3m1
JVASP-99918,TlBiPbS3,FAILED_JVASP-99918.cif,0.245,0.49,mBJ,0.245,-0.50922,,Imm2
JVASP-51237,SrCrPd2,FAILED_JVASP-51237.cif,0.0,0.0,mBJ,0.0,0.10231,,F-43m
JVASP-14946,VTc,FAILED_JVASP-14946.cif,0.0,0.0,mBJ,0.0,-0.35962,,Pm-3m
JVASP-43832,LiFeF3,FAILED_JVASP-43832.cif,0.0,0.0,mBJ,0.0,-2.41169,,P1
JVASP-15457,YbMn2Sb2,FAILED_JVASP-15457.cif,0.0,0.0,mBJ,0.0,-0.13698,,P-3m1
JVASP-20079,TaB,FAILED_JVASP-20079.cif,0.0,0.0,mBJ,0.0,-0.7655,,Cmcm
JVASP-2895,Ho2CF2,FAILED_JVASP-2895.cif,1.168,2.165,mBJ,0.997,-2.62305,,P-3m1
JVASP-1939,HgCl,FAILED_JVASP-1939.cif,2.253,3.249,mBJ,0.996,-0.40002,,I4/mmm
JVASP-100369,Na4SrCaSi2,FAILED_JVASP-100369.cif,0.188,0.643,mBJ,0.455,-0.12903,,P-4m2
JVASP-16060,TmSi2Rh2,FAILED_JVASP-16060.cif,0.0,0.0,mBJ,0.0,-1.0437,,I4/mmm
JVASP-100868,SmI3,FAILED_JVASP-100868.cif,1.614,2.455,mBJ,0.841,-1.35631,,P6_3/mmc
JVASP-100235,Tb3Zr,FAILED_JVASP-100235.cif,0.0,0.0,mBJ,0.0,0.08643,,I4/mmm
JVASP-15234,NdPPd,FAILED_JVASP-15234.cif,0.0,0.0,mBJ,0.0,-1.26675,,P6_3/mmc
JVASP-14572,UC2,FAILED_JVASP-14572.cif,0.0,0.0,mBJ,0.0,-0.22706,,I4/mmm
JVASP-15997,ReSi,FAILED_JVASP-15997.cif,0.0,0.0,mBJ,0.0,-0.17569,,P2_13
JVASP-45135,Mn3TeO8,FAILED_JVASP-45135.cif,0.0,0.0,mBJ,0.0,-1.54762,,P6_3mc
JVASP-99403,NaBiSe2,FAILED_JVASP-99403.cif,0.022,0.121,mBJ,0.099,-0.68283,,P4/mmm
JVASP-103383,ZrTiC2,FAILED_JVASP-103383.cif,0.0,0.0,mBJ,0.0,-0.88399,,R-3m
JVASP-99590,Na2LiAsF6,FAILED_JVASP-99590.cif,4.508,5.643,mBJ,1.135,-2.5777,,Fm-3m
JVASP-14674,SmPd3,FAILED_JVASP-14674.cif,0.0,0.0,mBJ,0.0,-0.85736,,Pm-3m
JVASP-103042,Te3Mo2Se,FAILED_JVASP-103042.cif,0.64,0.757,mBJ,0.117,-0.32887,,P3m1
JVASP-101477,LiCaSb,FAILED_JVASP-101477.cif,0.719,0.967,mBJ,0.248,-0.89093,,F-43m
JVASP-102954,LiDy2Pt,FAILED_JVASP-102954.cif,0.0,0.0,mBJ,0.0,-0.69576,,Fm-3m
JVASP-103521,Al2CO,FAILED_JVASP-103521.cif,1.944,2.904,mBJ,0.96,-1.3877,,P-6m2
JVASP-15360,PrCo2B2,FAILED_JVASP-15360.cif,0.0,0.0,mBJ,0.0,-0.50618,,I4/mmm
JVASP-51108,HgPRh,FAILED_JVASP-51108.cif,0.0,0.0,mBJ,0.0,0.9071,,F-43m
JVASP-102280,Ho2AgHg,FAILED_JVASP-102280.cif,0.0,0.0,mBJ,0.0,-0.38984,,Fm-3m
JVASP-101044,Zr3Si,FAILED_JVASP-101044.cif,0.0,0.0,mBJ,0.0,-0.357,,P6_3/mmc
JVASP-57577,TiFeBi2O6,FAILED_JVASP-57577.cif,0.0,0.0,mBJ,0.0,-1.86438,,R3
JVASP-22716,K2GeF6,FAILED_JVASP-22716.cif,5.966,8.502,mBJ,2.536,-2.89396,,P-3m1
JVASP-52373,BaYBr5,FAILED_JVASP-52373.cif,3.412,3.918,mBJ,0.506,-2.04762,,C2/c
JVASP-2664,Al2ZnSe4,FAILED_JVASP-2664.cif,2.293,3.863,mBJ,1.57,-0.89915,,I-4
JVASP-99503,Sr2ZnP2,FAILED_JVASP-99503.cif,0.0,0.315,mBJ,0.315,-0.91498,,P-6m2
JVASP-16126,Y2Al3Si2,FAILED_JVASP-16126.cif,0.0,0.0,mBJ,0.0,-0.56244,,C2/m
JVASP-2427,GaAgS2,FAILED_JVASP-2427.cif,0.937,2.36,mBJ,1.423,-0.54986,,I-42d
JVASP-1942,KI,FAILED_JVASP-1942.cif,4.092,6.384,mBJ,2.292,-1.58223,,Fm-3m
JVASP-100998,MgZrPt2,FAILED_JVASP-100998.cif,0.0,0.0,mBJ,0.0,-1.04641,,Fm-3m
JVASP-102208,HfAlZn,FAILED_JVASP-102208.cif,0.0,0.0,mBJ,0.0,-0.3556,,Imma
JVASP-54761,NaHO,FAILED_JVASP-54761.cif,3.8,6.853,mBJ,3.053,-1.42533,,P2_1
JVASP-99591,K2RbBiF6,FAILED_JVASP-99591.cif,4.334,6.559,mBJ,2.225,-2.67776,,Fm-3m
JVASP-100184,HI3,FAILED_JVASP-100184.cif,0.994,1.77,mBJ,0.776,0.04915,,P-1
JVASP-99919,TiCrS2,FAILED_JVASP-99919.cif,0.0,0.0,mBJ,0.0,-1.04314,,P-3m1