material_id,formula,cif_path,pbe_bandgap,hse_bandgap,gap_type,correction,formation_energy,total_energy,spacegroup
JVASP-99267,HgAs2O6,FAILED_JVASP-99267.cif,0.741,2.4,mBJ,1.659,-1.04151,,P-31m
JVASP-105705,O,FAILED_JVASP-105705.cif,0.938,2.223,mBJ,1.285,-0.01178,,Cmme
JVASP-91216,SrSnO3,FAILED_JVASP-91216.cif,1.782,3.145,mBJ,1.363,-2.42613,,I4/mcm
JVASP-71918,TaBeGa2,FAILED_JVASP-71918.cif,0.0,0.0,mBJ,0.0,-0.0597,,I4/mmm
JVASP-43175,Li4Fe3O8,FAILED_JVASP-43175.cif,0.015,0.0,mBJ,-0.015,-1.78882,,R3m
JVASP-74463,BeCrW,FAILED_JVASP-74463.cif,0.0,0.0,mBJ,0.0,0.29243,,P3m1
JVASP-18409,NiH,FAILED_JVASP-18409.cif,0.0,0.0,mBJ,0.0,0.01329,,Fm-3m
JVASP-71753,BeRhBr2,FAILED_JVASP-71753.cif,0.0,0.0,mBJ,0.0,0.48006,,I-4m2
JVASP-105848,Pr3Mg,FAILED_JVASP-105848.cif,0.0,0.0,mBJ,0.0,-0.01991,,I4/mmm
JVASP-94792,CrAs,FAILED_JVASP-94792.cif,0.0,0.0,mBJ,0.0,-0.14316,,Pnma
JVASP-98965,BaLiSb,FAILED_JVASP-98965.cif,0.749,1.163,mBJ,0.414,-1.0261,,P6_3/mmc
JVASP-74781,MnBe2Os,FAILED_JVASP-74781.cif,0.0,0.0,mBJ,0.0,-0.11772,,F-43m
JVASP-14711,FeAs,FAILED_JVASP-14711.cif,0.0,0.0,mBJ,0.0,-0.18607,,Pnma
JVASP-18468,K2OsBr6,FAILED_JVASP-18468.cif,0.0,0.0,mBJ,0.0,-0.94784,,Fm-3m
JVASP-75019,BeReCl4,FAILED_JVASP-75019.cif,0.0,0.0,mBJ,0.0,1.56743,,F-43m
JVASP-71810,BeZnIr2,FAILED_JVASP-71810.cif,0.0,0.0,mBJ,0.0,-0.01921,,I-4m2
JVASP-74501,Sc4BeTc,FAILED_JVASP-74501.cif,0.0,0.0,mBJ,0.0,0.65028,,F-43m
JVASP-72017,LiBeCr2,FAILED_JVASP-72017.cif,0.0,0.0,mBJ,0.0,0.31651,,P4/mmm
JVASP-105921,NpGa5Rh,FAILED_JVASP-105921.cif,0.0,0.0,mBJ,0.0,-0.36646,,P4/mmm
JVASP-3912,AcBr3,FAILED_JVASP-3912.cif,4.186,5.15,mBJ,0.964,-2.18616,,P6_3/m
JVASP-74420,Be2CdFe,FAILED_JVASP-74420.cif,0.0,0.0,mBJ,0.0,0.35529,,I-4m2
JVASP-74824,BeCrSi,FAILED_JVASP-74824.cif,0.0,0.0,mBJ,0.0,0.31084,,P3m1
JVASP-96088,BaHfP2O8,FAILED_JVASP-96088.cif,5.098,6.734,mBJ,1.636,-3.01183,,C2/m
JVASP-74686,Be2FeCo,FAILED_JVASP-74686.cif,0.0,0.0,mBJ,0.0,-0.15939,,F-43m
JVASP-2008,HoHSe,FAILED_JVASP-2008.cif,1.698,2.629,mBJ,0.931,-1.52055,,P-6m2
JVASP-18410,PuH2,FAILED_JVASP-18410.cif,0.0,0.0,mBJ,0.0,-0.50043,,Fm-3m
JVASP-74601,Be2GaTc,FAILED_JVASP-74601.cif,0.33,0.334,mBJ,0.004,-0.23344,,I-4m2
JVASP-74505,BePdPb2,FAILED_JVASP-74505.cif,0.0,0.0,mBJ,0.0,0.32069,,P4/mmm
JVASP-71643,TaBeP2,FAILED_JVASP-71643.cif,0.0,0.0,mBJ,0.0,0.05428,,I-4m2
JVASP-74205,Be2BiRu,FAILED_JVASP-74205.cif,0.0,0.0,mBJ,0.0,0.51221,,I-4m2
JVASP-106149,ScBN2,FAILED_JVASP-106149.cif,1.811,2.63,mBJ,0.819,-1.5354,,P6_3/mmc
JVASP-20095,ErP,FAILED_JVASP-20095.cif,0.0,0.0,mBJ,0.0,-1.71073,,Fm-3m
JVASP-74973,BeGe2Se,FAILED_JVASP-74973.cif,0.0,0.0,mBJ,0.0,0.53955,,P4/mmm
JVASP-74464,MgBeBr2,FAILED_JVASP-74464.cif,0.0,0.0,mBJ,0.0,0.04903,,P4/mmm
JVASP-74688,Be2ReOs,FAILED_JVASP-74688.cif,0.0,0.0,mBJ,0.0,0.01368,,F-43m
JVASP-74732,Na2BeNb,FAILED_JVASP-74732.cif,0.0,0.0,mBJ,0.0,1.03013,,F-43m
JVASP-74602,MnBe2Hg,FAILED_JVASP-74602.cif,0.0,0.0,mBJ,0.0,0.40273,,P4mm
JVASP-15114,PrBPd3,FAILED_JVASP-15114.cif,0.0,0.0,mBJ,0.0,-0.54004,,Pm-3m
JVASP-94793,Na3PSe4,FAILED_JVASP-94793.cif,1.334,2.293,mBJ,0.959,-0.79511,,I-43m
JVASP-71922,BeCr2W,FAILED_JVASP-71922.cif,0.0,0.0,mBJ,0.0,0.11629,,I-4m2
JVASP-16225,ScGe,FAILED_JVASP-16225.cif,0.0,0.0,mBJ,0.0,-0.8522,,Cmcm
JVASP-2085,SiRu,FAILED_JVASP-2085.cif,0.242,0.191,mBJ,-0.051,-0.51056,,P2_13
JVASP-14666,PrN,FAILED_JVASP-14666.cif,0.0,0.669,mBJ,0.669,-1.49567,,Fm-3m
JVASP-75020,Ca2BeW,FAILED_JVASP-75020.cif,0.0,0.0,mBJ,0.0,0.84112,,I-4m2
JVASP-107920,ErMgTl2,FAILED_JVASP-107920.cif,0.0,0.0,mBJ,0.0,-0.21447,,Fm-3m
JVASP-71813,LiBeFe2,FAILED_JVASP-71813.cif,0.0,0.0,mBJ,0.0,0.0839,,F-43m
JVASP-74974,BeNbMo,FAILED_JVASP-74974.cif,0.0,0.0,mBJ,0.0,0.37943,,P3m1
JVASP-107998,Tm2GaCu,FAILED_JVASP-107998.cif,0.0,0.0,mBJ,0.0,-0.4771,,Fm-3m
JVASP-74786,Hf2BeW,FAILED_JVASP-74786.cif,0.0,0.0,mBJ,0.0,-0.07584,,Fm-3m
JVASP-3318,ZnGa2Se4,FAILED_JVASP-3318.cif,1.408,2.839,mBJ,1.431,-0.64723,,I-4
JVASP-71754,MnBeCr2,FAILED_JVASP-71754.cif,0.0,0.0,mBJ,0.0,0.11145,,I-4m2
JVASP-74825,Be2NbNi,FAILED_JVASP-74825.cif,0.0,0.302,mBJ,0.302,-0.08478,,F-43m
JVASP-43100,Li2Cr3NiO8,FAILED_JVASP-43100.cif,0.0,0.0,mBJ,0.0,-1.94963,,R3m
JVASP-18711,Ti3Ga,FAILED_JVASP-18711.cif,0.0,0.0,mBJ,0.0,-0.31268,,P6_3/mmc
JVASP-105849,Pr3Sm,FAILED_JVASP-105849.cif,0.0,0.0,mBJ,0.0,0.0081,,Pm-3m
JVASP-91496,Nb2TlPS10,FAILED_JVASP-91496.cif,1.31,1.773,mBJ,0.463,-0.64261,,Pc
JVASP-18894,TiNiO6,FAILED_JVASP-18894.cif,0.0,0.0,mBJ,0.0,-0.85577,,R3
JVASP-21529,Mg3B2O6,FAILED_JVASP-21529.cif,5.694,7.54,mBJ,1.846,-2.89141,,Pnnm
JVASP-99100,Ba2UCu2S5,FAILED_JVASP-99100.cif,0.012,0.0,mBJ,-0.012,-1.54483,,C2/m
JVASP-72020,Mn2BePt,FAILED_JVASP-72020.cif,0.0,0.0,mBJ,0.0,-0.13263,,I4/mmm
JVASP-3366,Ba2MnZn2As2O2,FAILED_JVASP-3366.cif,0.0,0.0,mBJ,0.0,-1.37948,,I4/mmm
JVASP-3723,SrHClO,FAILED_JVASP-3723.cif,5.206,7.444,mBJ,2.238,-2.24473,,P6_3mc
JVASP-75023,BeCuTe,FAILED_JVASP-75023.cif,0.0,0.0,mBJ,0.0,0.29277,,P3m1
JVASP-3915,NdBr3,FAILED_JVASP-3915.cif,2.654,3.747,mBJ,1.093,-1.98489,,Cmcm
JVASP-95240,H5CSN2ClO4,FAILED_JVASP-95240.cif,2.011,2.958,mBJ,0.947,-0.20212,,P-1
JVASP-74689,Be2InTc,FAILED_JVASP-74689.cif,0.286,0.288,mBJ,0.002,0.11479,,I-4m2
JVASP-20070,VIr3,FAILED_JVASP-20070.cif,0.0,0.0,mBJ,0.0,-0.48763,,Pm-3m
JVASP-71704,YBeCo2,FAILED_JVASP-71704.cif,0.0,0.0,mBJ,0.0,0.14911,,I-4m2
JVASP-74648,CaBeBi2,FAILED_JVASP-74648.cif,0.0,0.0,mBJ,0.0,0.05378,,I4/mmm
JVASP-107999,Yb2AgSb,FAILED_JVASP-107999.cif,0.0,0.112,mBJ,0.112,-0.81871,,Fm-3m
JVASP-13891,YbNd2S4,FAILED_JVASP-13891.cif,1.69,2.352,mBJ,0.662,-1.99483,,C222_1
JVASP-74466,Be2ZnSi,FAILED_JVASP-74466.cif,0.0,0.0,mBJ,0.0,0.39527,,I-4m2
JVASP-74788,ScBe2Cl,FAILED_JVASP-74788.cif,0.0,0.0,mBJ,0.0,0.13573,,I-4m2
JVASP-74422,Hf2BeTc,FAILED_JVASP-74422.cif,0.0,0.0,mBJ,0.0,-0.25155,,Fm-3m
JVASP-1735,LuB2,FAILED_JVASP-1735.cif,0.0,0.0,mBJ,0.0,-0.73188,,P6/mmm
JVASP-74975,MnBe2Ir,FAILED_JVASP-74975.cif,0.0,0.0,mBJ,0.0,-0.18359,,I-4m2
JVASP-71926,BeVRe2,FAILED_JVASP-71926.cif,0.0,0.0,mBJ,0.0,0.02969,,I-4m2
JVASP-3507,ZnIn2Se4,FAILED_JVASP-3507.cif,0.932,2.246,mBJ,1.314,-0.59281,,I-4
JVASP-48133,Fe4O7F,FAILED_JVASP-48133.cif,0.0,0.0,mBJ,0.0,-1.51797,,Imm2
JVASP-105929,Mg2Ga2S5,FAILED_JVASP-105929.cif,1.239,2.377,mBJ,1.138,-1.13836,,P-3m1
JVASP-18411,HRh,FAILED_JVASP-18411.cif,0.0,0.0,mBJ,0.0,0.12626,,Fm-3m
JVASP-74932,NaCa2Be,FAILED_JVASP-74932.cif,0.0,0.0,mBJ,0.0,0.29016,,Fm-3m
JVASP-5665,TaTe2Cl6,FAILED_JVASP-5665.cif,0.803,0.903,mBJ,0.1,-1.00329,,P-1
JVASP-105993,Sr4SeS3,FAILED_JVASP-105993.cif,2.359,3.36,mBJ,1.001,-2.31814,,C2/m
JVASP-74739,Na2SrBe,FAILED_JVASP-74739.cif,0.0,0.0,mBJ,0.0,0.41117,,P4/mmm
JVASP-1888,InHg,FAILED_JVASP-1888.cif,0.0,0.0,mBJ,0.0,0.11195,,R-3m
JVASP-71967,Mn2BeRh,FAILED_JVASP-71967.cif,0.0,0.0,mBJ,0.0,-0.10914,,I4/mmm
JVASP-74976,Be2GaMo,FAILED_JVASP-74976.cif,0.0,0.0,mBJ,0.0,-0.01843,,I-4m2
JVASP-108001,Yb3Al,FAILED_JVASP-108001.cif,0.0,0.0,mBJ,0.0,-0.12281,,Fm-3m
JVASP-2011,KH,FAILED_JVASP-2011.cif,3.537,5.925,mBJ,2.388,-0.32572,,Fm-3m
JVASP-75024,Hf2BeV,FAILED_JVASP-75024.cif,0.0,0.0,mBJ,0.0,0.11071,,Fm-3m
JVASP-14746,TaSe2,FAILED_JVASP-14746.cif,0.0,0.0,mBJ,0.0,-0.82142,,P6_3/mmc
JVASP-16121,NpSi2Pd2,FAILED_JVASP-16121.cif,0.0,0.0,mBJ,0.0,-0.59442,,I4/mmm
JVASP-74877,BeFe4Mo,FAILED_JVASP-74877.cif,0.0,0.0,mBJ,0.0,0.08077,,F-43m
JVASP-74424,HfBe2Pt,FAILED_JVASP-74424.cif,0.0,0.0,mBJ,0.0,-0.38705,,P4mm
JVASP-20071,NpB2,FAILED_JVASP-20071.cif,0.0,0.0,mBJ,0.0,-0.53086,,P6/mmm
JVASP-14645,YbPt3,FAILED_JVASP-14645.cif,0.0,0.0,mBJ,0.0,-0.88231,,Pm-3m
JVASP-74557,ScBeIn,FAILED_JVASP-74557.cif,0.0,0.0,mBJ,0.0,-0.19147,,P-6m2
JVASP-28379,MoS2,FAILED_JVASP-28379.cif,0.958,1.364,mBJ,0.406,-0.95754,,P6_3/mmc
JVASP-18945,SmP,FAILED_JVASP-18945.cif,0.0,0.0,mBJ,0.0,-1.66878,,Fm-3m
JVASP-74691,MnBe2Ni,FAILED_JVASP-74691.cif,0.0,0.0,mBJ,0.0,-0.11638,,F-43m
JVASP-3918,SmBr3,FAILED_JVASP-3918.cif,2.691,4.001,mBJ,1.31,-1.96929,,Cmcm
JVASP-106155,Ba2NiN2,FAILED_JVASP-106155.cif,0.0,0.0,mBJ,0.0,-0.58449,,I4/mmm
JVASP-1738,Rb2Se,FAILED_JVASP-1738.cif,1.842,3.786,mBJ,1.944,-1.16566,,Fm-3m
JVASP-28407,WSe2,FAILED_JVASP-28407.cif,1.219,1.726,mBJ,0.507,-0.50474,,P-3m1
JVASP-74467,NaBe2Pd,FAILED_JVASP-74467.cif,0.0,0.0,mBJ,0.0,0.03269,,P4mm
JVASP-14667,HfB,FAILED_JVASP-14667.cif,0.0,0.0,mBJ,0.0,-0.4605,,Fm-3m
JVASP-49963,SrCaI4,FAILED_JVASP-49963.cif,3.546,4.412,mBJ,0.866,-1.70824,,Pbcn
JVASP-74790,HfBe2Ru,FAILED_JVASP-74790.cif,0.0,0.0,mBJ,0.0,-0.08317,,P4mm
JVASP-74979,K2BeTe,FAILED_JVASP-74979.cif,1.152,1.6,mBJ,0.448,-0.12891,,Fm-3m
JVASP-5191,SbSBr,FAILED_JVASP-5191.cif,1.71,2.33,HSE,0.62,-0.50675,,Pnma
JVASP-74829,NaBeCl2,FAILED_JVASP-74829.cif,0.0,1.831,mBJ,1.831,-0.57338,,P4/mmm
JVASP-71815,BeVOs2,FAILED_JVASP-71815.cif,0.0,0.0,mBJ,0.0,-0.06496,,I-4m2
JVASP-74740,Ca2BeIn,FAILED_JVASP-74740.cif,0.0,0.0,mBJ,0.0,-0.0744,,P4/mmm
JVASP-72021,BeCu2Tc,FAILED_JVASP-72021.cif,0.0,0.0,mBJ,0.0,0.22432,,I4/mmm
JVASP-15086,ScN,FAILED_JVASP-15086.cif,0.02,0.736,mBJ,0.716,-2.15468,,Fm-3m
JVASP-108112,KRbMnF6,FAILED_JVASP-108112.cif,2.396,2.596,mBJ,0.2,-2.8554,,F-43m
JVASP-74511,BeMoSe,FAILED_JVASP-74511.cif,0.0,0.0,mBJ,0.0,0.2035,,P3m1
JVASP-107933,Hg3Pt,FAILED_JVASP-107933.cif,0.0,0.0,mBJ,0.0,0.35126,,I4/mmm
JVASP-75025,Be2CdFe,FAILED_JVASP-75025.cif,0.0,0.0,mBJ,0.0,0.22956,,P4mm
JVASP-54759,NaHO,FAILED_JVASP-54759.cif,3.652,6.643,mBJ,2.991,-1.39886,,P2_1/m
JVASP-1245,CdF2,FAILED_JVASP-1245.cif,3.063,6.38,mBJ,3.317,-2.30934,,Fm-3m
JVASP-14810,Sc,FAILED_JVASP-14810.cif,0.0,0.0,mBJ,0.0,0.0,,P6_3/mmc
JVASP-52370,SbOF,FAILED_JVASP-52370.cif,3.261,5.053,mBJ,1.792,-1.87854,,Pnma
JVASP-3204,HoAgTe2,FAILED_JVASP-3204.cif,0.885,1.303,mBJ,0.418,-0.91848,,P-42_1m
JVASP-1288,Li2S,FAILED_JVASP-1288.cif,3.502,4.262,mBJ,0.76,-1.4862,,Fm-3m
JVASP-74692,Be2SbW,FAILED_JVASP-74692.cif,0.0,0.0,mBJ,0.0,0.28455,,I-4m2
JVASP-71758,BeReBr2,FAILED_JVASP-71758.cif,0.0,0.0,mBJ,0.0,1.35369,,I-4m2
JVASP-19873,BaSn,FAILED_JVASP-19873.cif,0.0,0.0,mBJ,0.0,-0.77239,,Cmcm
JVASP-74562,BeVRh,FAILED_JVASP-74562.cif,0.0,0.0,mBJ,0.0,-0.09209,,P3m1
JVASP-74651,Be2CdIr,FAILED_JVASP-74651.cif,0.0,0.0,mBJ,0.0,0.03123,,I-4m2
JVASP-29183,Te4Mo3WSe2S2,FAILED_JVASP-29183.cif,0.226,0.347,mBJ,0.121,-0.4289,,P3m1
JVASP-108114,KIO3,FAILED_JVASP-108114.cif,2.6,3.493,mBJ,0.893,-1.06942,,R3m
JVASP-48505,Mn3OF5,FAILED_JVASP-48505.cif,0.0,0.0,mBJ,0.0,-2.29588,,Cm
JVASP-18919,ScRh3,FAILED_JVASP-18919.cif,0.0,0.0,mBJ,0.0,-0.65071,,Pm-3m
JVASP-15132,DyAlNi,FAILED_JVASP-15132.cif,0.0,0.0,mBJ,0.0,-0.65912,,P-62m
JVASP-107939,Li2HgBi,FAILED_JVASP-107939.cif,0.0,0.0,mBJ,0.0,-0.38326,,Fm-3m
JVASP-105933,LiMgSb,FAILED_JVASP-105933.cif,1.39,1.707,mBJ,0.317,-0.63425,,F-43m
JVASP-20072,UOs2,FAILED_JVASP-20072.cif,0.0,0.0,mBJ,0.0,-0.13572,,Fd-3m
JVASP-74791,TiBe2V,FAILED_JVASP-74791.cif,0.0,0.0,mBJ,0.0,0.07316,,I-4m2
JVASP-74880,TiBe2Br,FAILED_JVASP-74880.cif,0.0,0.0,mBJ,0.0,0.13341,,P4mm
JVASP-14712,PrMg3,FAILED_JVASP-14712.cif,0.0,0.0,mBJ,0.0,-0.12484,,Fm-3m
JVASP-1864,NaNiO2,FAILED_JVASP-1864.cif,0.0,0.308,mBJ,0.308,-1.30215,,C2/m
JVASP-18412,TaH2,FAILED_JVASP-18412.cif,0.0,0.0,mBJ,0.0,-0.07946,,Fm-3m
JVASP-74830,MnBe2P,FAILED_JVASP-74830.cif,0.0,0.0,mBJ,0.0,-0.17087,,P4mm
JVASP-105711,Yb3Ba,FAILED_JVASP-105711.cif,0.0,0.0,mBJ,0.0,0.04684,,I4/mmm
JVASP-15228,NbGaNi2,FAILED_JVASP-15228.cif,0.0,0.0,mBJ,0.0,-0.33045,,Fm-3m
JVASP-105853,YbSr,FAILED_JVASP-105853.cif,0.0,0.0,mBJ,0.0,0.04241,,P-6m2
JVASP-3924,UO2F2,FAILED_JVASP-3924.cif,2.289,2.322,mBJ,0.033,-3.3378,,R-3m
JVASP-72022,Na2BePt,FAILED_JVASP-72022.cif,0.0,0.0,mBJ,0.0,0.05686,,I4/mmm
JVASP-74470,ZrBe2Te,FAILED_JVASP-74470.cif,0.0,0.0,mBJ,0.0,0.1854,,P4/mmm
JVASP-74985,NaMg2Be,FAILED_JVASP-74985.cif,0.0,0.0,mBJ,0.0,0.31733,,Fm-3m
JVASP-16022,LuCuSi,FAILED_JVASP-16022.cif,0.0,0.0,mBJ,0.0,-0.641,,P6_3/mmc
JVASP-1177,GaSb,FAILED_JVASP-1177.cif,0.0,0.593,mBJ,0.593,-0.14862,,F-43m
JVASP-105794,LiAcO3,FAILED_JVASP-105794.cif,0.0,0.0,mBJ,0.0,-2.27057,,Pm-3m
JVASP-91278,MgPbF6,FAILED_JVASP-91278.cif,3.047,4.637,mBJ,1.59,-2.64622,,R-3
JVASP-74430,K2BeSe,FAILED_JVASP-74430.cif,0.0,0.0,mBJ,0.0,-0.10133,,P4/mmm
JVASP-75026,BeSnBi2,FAILED_JVASP-75026.cif,0.0,0.0,mBJ,0.0,0.5497,,I4/mmm
JVASP-14811,Sm,FAILED_JVASP-14811.cif,0.0,0.0,mBJ,0.0,0.0257,,P6_3/mmc
JVASP-107940,Li2SnPb,FAILED_JVASP-107940.cif,0.0,0.0,mBJ,0.0,-0.35939,,Fm-3m
JVASP-71759,TiBeCo2,FAILED_JVASP-71759.cif,0.0,0.0,mBJ,0.0,-0.3047,,I-4m2
JVASP-71974,Mn2BePd,FAILED_JVASP-71974.cif,0.0,0.0,mBJ,0.0,0.0198,,I4/mmm
JVASP-74881,TiBeSi,FAILED_JVASP-74881.cif,0.0,0.0,mBJ,0.0,0.18806,,P3m1
JVASP-3726,CaHI,FAILED_JVASP-3726.cif,3.616,4.238,mBJ,0.622,-1.22988,,P4/nmm
JVASP-74564,K2BeTe,FAILED_JVASP-74564.cif,0.0,0.351,mBJ,0.351,-0.03386,,I-4m2
JVASP-3159,Rb2Pd3S4,FAILED_JVASP-3159.cif,1.134,1.165,mBJ,0.031,-0.80197,,Fmmm
JVASP-1987,InI,FAILED_JVASP-1987.cif,1.616,1.779,mBJ,0.163,-0.53945,,Cmcm
JVASP-14668,TmPd,FAILED_JVASP-14668.cif,0.0,0.0,mBJ,0.0,-0.9826,,Pm-3m
JVASP-94798,NaCl7,FAILED_JVASP-94798.cif,0.244,0.965,mBJ,0.721,-0.22021,,Pm-3
JVASP-106083,Fe3Si2Ni3,FAILED_JVASP-106083.cif,0.0,0.0,mBJ,0.0,-0.25797,,Pmmm
JVASP-106160,MnPbN2,FAILED_JVASP-106160.cif,0.0,0.0,mBJ,0.0,0.10523,,P4/nmm
JVASP-1891,LuNiSb,FAILED_JVASP-1891.cif,0.192,0.22,mBJ,0.028,-0.91159,,F-43m
JVASP-72023,BeSiPt2,FAILED_JVASP-72023.cif,0.0,0.0,mBJ,0.0,-0.38388,,I-4m2
JVASP-105934,Fe2CoSi,FAILED_JVASP-105934.cif,0.0,0.0,mBJ,0.0,-0.29885,,F-43m
JVASP-74836,K2BeRh,FAILED_JVASP-74836.cif,0.0,0.298,mBJ,0.298,0.71747,,F-43m
JVASP-3927,PrClO,FAILED_JVASP-3927.cif,4.647,5.875,mBJ,1.228,-3.23932,,P4/nmm
JVASP-74472,Sc2BeTe,FAILED_JVASP-74472.cif,0.0,0.0,mBJ,0.0,-0.24047,,P4/mmm
JVASP-74882,K2YBe,FAILED_JVASP-74882.cif,0.0,0.0,mBJ,0.0,0.74905,,I4/mmm
JVASP-91356,KAuI4,FAILED_JVASP-91356.cif,0.294,0.637,mBJ,0.343,-0.56483,,P2_1/c
JVASP-106085,Dy2O3,FAILED_JVASP-106085.cif,1.581,3.828,mBJ,2.247,-3.56238,,P-4m2
JVASP-74697,K2BeSb,FAILED_JVASP-74697.cif,0.0,0.0,mBJ,0.0,0.22532,,I-4m2
JVASP-71760,BeGa2Tc,FAILED_JVASP-71760.cif,0.0,0.0,mBJ,0.0,-0.07411,,I-4m2
JVASP-16228,VB,FAILED_JVASP-16228.cif,0.0,0.0,mBJ,0.0,-0.8068,,Cmcm
JVASP-3729,SrHI,FAILED_JVASP-3729.cif,3.608,4.138,mBJ,0.53,-1.29189,,P4/nmm
JVASP-16024,NiC2S2N2,FAILED_JVASP-16024.cif,0.231,0.281,mBJ,0.05,0.18335,,C2/m
JVASP-14669,Yb3Si5,FAILED_JVASP-14669.cif,0.0,0.0,mBJ,0.0,-0.43516,,P-62m
JVASP-18921,TbP,FAILED_JVASP-18921.cif,0.0,0.0,mBJ,0.0,-1.70837,,Fm-3m
JVASP-71977,BeVSe2,FAILED_JVASP-71977.cif,0.0,0.0,mBJ,0.0,0.03453,,I-4m2
JVASP-3438,LiInSe2,FAILED_JVASP-3438.cif,1.576,2.812,mBJ,1.236,-0.89684,,I-42d
JVASP-107944,Li3Rh,FAILED_JVASP-107944.cif,0.0,0.0,mBJ,0.0,-0.14133,,P6_3/mmc
JVASP-3633,PrCl3,FAILED_JVASP-3633.cif,4.406,5.393,mBJ,0.987,-2.42517,,P6_3/m
JVASP-74799,K2BeSe,FAILED_JVASP-74799.cif,1.195,1.558,mBJ,0.363,-0.16854,,Fm-3m
JVASP-22603,TlF,FAILED_JVASP-22603.cif,3.097,3.806,mBJ,0.709,-1.83186,,P4/nmm
JVASP-15194,SrP2Pd2,FAILED_JVASP-15194.cif,0.0,0.0,mBJ,0.0,-0.84379,,I4/mmm
JVASP-14813,Rb,FAILED_JVASP-14813.cif,0.0,12.713,mBJ,12.713,0.00071,,Im-3m
JVASP-95066,ErSe2,FAILED_JVASP-95066.cif,0.0,0.0,mBJ,0.0,-1.60629,,Immm
JVASP-571,YS2,FAILED_JVASP-571.cif,0.0,0.0,mBJ,0.0,-1.881,,P4/nmm
JVASP-96735,Al2O3,FAILED_JVASP-96735.cif,4.945,6.54,mBJ,1.595,-3.12509,,C2/c
JVASP-106161,BaZn2N2,FAILED_JVASP-106161.cif,0.813,1.601,mBJ,0.788,-0.27497,,P-3m1
JVASP-91229,K2Pd3Se4,FAILED_JVASP-91229.cif,0.858,1.02,mBJ,0.162,-0.71287,,Fddd
JVASP-18413,TbH2,FAILED_JVASP-18413.cif,0.0,0.375,mBJ,0.375,-0.73745,,Fm-3m
JVASP-3162,KSbS2,FAILED_JVASP-3162.cif,1.43,2.447,mBJ,1.017,-0.84294,,C2/c
JVASP-20073,TaC,FAILED_JVASP-20073.cif,0.0,0.0,mBJ,0.0,-0.63999,,Fm-3m
JVASP-15608,CaFe2P2,FAILED_JVASP-15608.cif,0.0,0.0,mBJ,0.0,-0.90698,,I4/mmm
JVASP-105937,USbPd2,FAILED_JVASP-105937.cif,0.0,0.0,mBJ,0.0,-0.42055,,Fm-3m
JVASP-91443,CrHg5S2O5,FAILED_JVASP-91443.cif,1.869,1.976,mBJ,0.107,-0.68189,,P-1
JVASP-96148,BaMg2H8Os,FAILED_JVASP-96148.cif,2.153,2.71,mBJ,0.557,-0.46315,,P4_2/mmc
JVASP-74801,BeNbTl,FAILED_JVASP-74801.cif,0.0,0.0,mBJ,0.0,0.63653,,P3m1
JVASP-18844,SmPd,FAILED_JVASP-18844.cif,0.0,0.0,mBJ,0.0,-0.8973,,Cmcm
JVASP-74989,K2MnBe,FAILED_JVASP-74989.cif,0.0,0.0,mBJ,0.0,1.10593,,I4/mmm
JVASP-106086,Dy2Si3,FAILED_JVASP-106086.cif,0.0,0.0,mBJ,0.0,-0.59204,,Imm2
JVASP-13827,MgSiO3,FAILED_JVASP-13827.cif,5.262,6.472,mBJ,1.21,-2.78536,,Cmcm
JVASP-75035,Na2BePt,FAILED_JVASP-75035.cif,0.0,0.0,mBJ,0.0,0.32851,,P4/mmm
JVASP-95247,Li3H6Ir,FAILED_JVASP-95247.cif,3.176,3.209,mBJ,0.033,-0.48163,,Pnma
JVASP-1912,InAgO2,FAILED_JVASP-1912.cif,0.406,1.319,mBJ,0.913,-1.17142,,R-3m
JVASP-14814,Yb,FAILED_JVASP-14814.cif,0.0,0.0,mBJ,0.0,0.00364,,Im-3m
JVASP-14941,PrAg,FAILED_JVASP-14941.cif,0.0,0.0,mBJ,0.0,-0.29015,,Pm-3m
JVASP-4852,ScAgP2Se6,FAILED_JVASP-4852.cif,1.481,1.689,mBJ,0.208,-0.51957,,P-31c
JVASP-344,WO3,FAILED_JVASP-344.cif,0.177,1.574,mBJ,1.397,-2.28072,,P4/nmm
JVASP-15990,HoSb2,FAILED_JVASP-15990.cif,0.0,0.0,mBJ,0.0,-0.21421,,C222
JVASP-1768,ScAgSe2,FAILED_JVASP-1768.cif,0.765,1.204,mBJ,0.439,-1.14235,,P-3m1
JVASP-106008,PuNpB4,FAILED_JVASP-106008.cif,0.0,0.0,mBJ,0.0,-0.53463,,P6/mmm
JVASP-52371,TiOF,FAILED_JVASP-52371.cif,0.0,2.465,mBJ,2.465,-3.3031,,P4/mmm
JVASP-16025,NpSO,FAILED_JVASP-16025.cif,0.0,0.0,mBJ,0.0,-2.60011,,P4/nmm
JVASP-3732,Sr2H6Ru,FAILED_JVASP-3732.cif,2.179,2.384,mBJ,0.205,-0.63704,,Fm-3m
JVASP-105939,Tl2VF6,FAILED_JVASP-105939.cif,0.0,2.222,mBJ,2.222,-2.54919,,Fm-3m
JVASP-96736,Si,FAILED_JVASP-96736.cif,0.704,1.181,mBJ,0.477,2e-05,,Fd-3m
JVASP-14670,Si,FAILED_JVASP-14670.cif,0.0,0.0,mBJ,0.0,0.42861,,P6/mmm
JVASP-3819,K2AgBi,FAILED_JVASP-3819.cif,0.948,1.641,mBJ,0.693,-0.39765,,Cmcm
JVASP-49965,Rb3ClO,FAILED_JVASP-49965.cif,0.489,2.609,mBJ,2.12,-1.47373,,Pm-3m
JVASP-107947,LiTi2Ir,FAILED_JVASP-107947.cif,0.0,0.0,mBJ,0.0,-0.55203,,Fm-3m
JVASP-74802,ZrBe2Ga,FAILED_JVASP-74802.cif,0.0,0.0,mBJ,0.0,0.10687,,I-4m2
JVASP-91509,V2CdO6,FAILED_JVASP-91509.cif,2.137,2.444,mBJ,0.307,-2.21243,,Pbcn
JVASP-16154,YbCuSb,FAILED_JVASP-16154.cif,0.0,0.0,mBJ,0.0,-0.76956,,P6_3/mmc
JVASP-56540,Rb2NbCl6,FAILED_JVASP-56540.cif,0.0,3.298,mBJ,3.298,-1.72415,,Fm-3m
JVASP-18587,ScInAg2,FAILED_JVASP-18587.cif,0.0,0.0,mBJ,0.0,-0.31879,,Fm-3m
JVASP-71979,BeMo2W,FAILED_JVASP-71979.cif,0.0,0.0,mBJ,0.0,0.13499,,I4/mmm
JVASP-14714,NbRu,FAILED_JVASP-14714.cif,0.0,0.0,mBJ,0.0,-0.17089,,P4/mmm
JVASP-74842,HfMgBe2,FAILED_JVASP-74842.cif,0.0,0.0,mBJ,0.0,0.4244,,F-43m
JVASP-18414,TiH2,FAILED_JVASP-18414.cif,0.0,0.0,mBJ,0.0,-0.50482,,I4/mmm
JVASP-15011,TaBe2,FAILED_JVASP-15011.cif,0.0,0.0,mBJ,0.0,-0.17009,,Fd-3m
JVASP-15653,CaCuSb,FAILED_JVASP-15653.cif,0.0,0.0,mBJ,0.0,-0.73204,,P6_3/mmc
JVASP-3165,K4ZnP2,FAILED_JVASP-3165.cif,1.018,2.503,mBJ,1.485,-0.50405,,R-3m
JVASP-4624,BaCu2As2,FAILED_JVASP-4624.cif,0.0,0.0,mBJ,0.0,-0.54352,,I4/mmm
JVASP-12194,TeO3,FAILED_JVASP-12194.cif,0.19,1.046,mBJ,0.856,-0.16365,,P6_3cm
JVASP-14647,ThAg2,FAILED_JVASP-14647.cif,0.0,0.0,mBJ,0.0,-0.20566,,P6/mmm
JVASP-19931,HoAu2,FAILED_JVASP-19931.cif,0.0,0.0,mBJ,0.0,-0.94523,,I4/mmm
JVASP-43827,Li2FeF4,FAILED_JVASP-43827.cif,0.043,0.0,mBJ,-0.043,-2.54496,,Pbam
JVASP-74995,BeVIn2,FAILED_JVASP-74995.cif,0.0,0.0,mBJ,0.0,0.40623,,P4/mmm
JVASP-44482,Li4NbFe5O12,FAILED_JVASP-44482.cif,0.0,0.0,mBJ,0.0,-1.84863,,C2/m
JVASP-14815,Ti,FAILED_JVASP-14815.cif,0.0,0.0,mBJ,0.0,0.0,,P6/mmm
JVASP-3636,AsI3,FAILED_JVASP-3636.cif,2.016,2.422,mBJ,0.406,-0.19585,,R-3
JVASP-44042,MgFeO3,FAILED_JVASP-44042.cif,0.0,0.0,mBJ,0.0,-2.04139,,R-3
JVASP-19844,ScAl2,FAILED_JVASP-19844.cif,0.0,0.0,mBJ,0.0,-0.50182,,Fd-3m
JVASP-95416,SeBr,FAILED_JVASP-95416.cif,1.45,2.421,mBJ,0.971,-0.06451,,P2_1/c
JVASP-3735,CaHBr,FAILED_JVASP-3735.cif,3.96,4.965,mBJ,1.005,-1.46904,,P4/nmm
JVASP-15747,Ho3SnC,FAILED_JVASP-15747.cif,0.0,0.0,mBJ,0.0,1.45521,,Pm-3m
JVASP-15450,PrCo2Ge2,FAILED_JVASP-15450.cif,0.0,0.0,mBJ,0.0,-0.58758,,I4/mmm
JVASP-99373,Ga3Sb,FAILED_JVASP-99373.cif,0.0,0.0,mBJ,0.0,0.08565,,I4/mmm
JVASP-99353,Rb2SnH12N6,FAILED_JVASP-99353.cif,2.776,4.307,mBJ,1.531,-0.30894,,P-3
JVASP-18665,GaFeCo2,FAILED_JVASP-18665.cif,0.0,0.0,mBJ,0.0,-0.19638,,Fm-3m
JVASP-99419,CaPmMg2,FAILED_JVASP-99419.cif,0.0,0.0,mBJ,0.0,-0.10128,,Fm-3m
JVASP-108032,RbAs2Rh2,FAILED_JVASP-108032.cif,0.0,0.0,mBJ,0.0,-0.62026,,I4/mmm