material_id,formula,cif_path,pbe_bandgap,hse_bandgap,gap_type,correction,formation_energy,total_energy,spacegroup
JVASP-62112,Na4BeAlSi4ClO12,FAILED_JVASP-62112.cif,4.766,7.65,mBJ,2.884,-2.76184,,I-4
JVASP-69314,Ba2HfBi,FAILED_JVASP-69314.cif,0.0,0.0,mBJ,0.0,0.1949,,Fm-3m
JVASP-65403,BaFePd2,FAILED_JVASP-65403.cif,0.0,0.0,mBJ,0.0,0.20963,,P4/mmm
JVASP-65741,BaCdW2,FAILED_JVASP-65741.cif,0.0,0.0,mBJ,0.0,1.4792,,P4/mmm
JVASP-65707,BaPd2Rh,FAILED_JVASP-65707.cif,0.0,0.0,mBJ,0.0,0.04245,,P4/mmm
JVASP-86995,RbN3,FAILED_JVASP-86995.cif,4.298,5.387,mBJ,1.089,-0.21489,,I4/mcm
JVASP-69158,BaSrPb2,FAILED_JVASP-69158.cif,0.0,0.0,mBJ,0.0,-0.27702,,P4mm
JVASP-69275,BaSi2Br,FAILED_JVASP-69275.cif,0.0,0.0,mBJ,0.0,-0.18283,,P4/mmm
JVASP-69238,BaCaCr4,FAILED_JVASP-69238.cif,0.0,0.0,mBJ,0.0,1.03578,,F-43m
JVASP-69116,BaSc4Mo,FAILED_JVASP-69116.cif,0.0,0.0,mBJ,0.0,0.74142,,F-43m
JVASP-65208,BeTeBr4,FAILED_JVASP-65208.cif,0.0,0.0,mBJ,0.0,0.94249,,F-43m
JVASP-86626,ScCr2AgH4O10,FAILED_JVASP-86626.cif,1.328,1.291,mBJ,-0.037,-1.72076,,P-1
JVASP-69040,Ba2MgTe,FAILED_JVASP-69040.cif,0.0,0.0,mBJ,0.0,-0.69002,,Fm-3m
JVASP-68960,BaCaBr2,FAILED_JVASP-68960.cif,0.0,0.0,mBJ,0.0,-1.5703,,P4mm
JVASP-65595,BaBe2Br,FAILED_JVASP-65595.cif,0.0,0.0,mBJ,0.0,0.36438,,P4/mmm
JVASP-65631,Ba2SnCl,FAILED_JVASP-65631.cif,0.0,0.0,mBJ,0.0,-1.20074,,Fm-3m
JVASP-69117,Ba2CaGe,FAILED_JVASP-69117.cif,0.0,0.0,mBJ,0.0,-0.18574,,Fm-3m
JVASP-15777,V3Ni,FAILED_JVASP-15777.cif,0.0,0.0,mBJ,0.0,-0.16022,,Pm-3n
JVASP-3660,Cu2HgI4,FAILED_JVASP-3660.cif,0.514,0.996,mBJ,0.482,-0.16848,,I-42m
JVASP-91716,SrZrN2,FAILED_JVASP-91716.cif,1.334,1.762,mBJ,0.428,-1.55288,,P4/nmm
JVASP-3864,Rb2TiCl6,FAILED_JVASP-3864.cif,2.016,2.511,mBJ,0.495,-1.92315,,Fm-3m
JVASP-62778,BN,FAILED_JVASP-62778.cif,4.46,6.114,mBJ,1.654,-1.38442,,P6_3/mmc
JVASP-65469,BaMnGe2,FAILED_JVASP-65469.cif,0.0,0.0,mBJ,0.0,0.20455,,P4mm
JVASP-63414,CrAs,FAILED_JVASP-63414.cif,0.0,0.0,mBJ,0.0,-0.13469,,P6_3/mmc
JVASP-2190,KO,FAILED_JVASP-2190.cif,2.696,4.834,mBJ,2.138,-1.2611,,Cmce
JVASP-90785,MgTi3,FAILED_JVASP-90785.cif,0.0,0.0,mBJ,0.0,0.14531,,I4/mmm
JVASP-16089,Os,FAILED_JVASP-16089.cif,0.0,0.0,mBJ,0.0,0.13481,,Fm-3m
JVASP-69078,BaScPb2,FAILED_JVASP-69078.cif,0.0,0.0,mBJ,0.0,-0.14409,,P4mm
JVASP-65527,BaP2Br,FAILED_JVASP-65527.cif,0.0,0.0,mBJ,0.0,-0.40771,,I4/mmm
JVASP-43961,LiVF4,FAILED_JVASP-43961.cif,0.0,0.0,mBJ,0.0,-2.95582,,Cmcm
JVASP-14703,Cr3Os,FAILED_JVASP-14703.cif,0.0,0.0,mBJ,0.0,0.00594,,Pm-3n
JVASP-69201,Ba2NaGa,FAILED_JVASP-69201.cif,0.0,0.0,mBJ,0.0,-0.17577,,Fm-3m
JVASP-65708,Ba2MoPb,FAILED_JVASP-65708.cif,0.0,0.0,mBJ,0.0,0.54349,,Fm-3m
JVASP-69364,BaCo2Cl,FAILED_JVASP-69364.cif,0.0,0.0,mBJ,0.0,0.31696,,Pmmm
JVASP-3555,Rb2TeCl6,FAILED_JVASP-3555.cif,2.448,2.956,mBJ,0.508,-1.34902,,Fm-3m
JVASP-3282,Rb2PdF6,FAILED_JVASP-3282.cif,2.176,2.226,mBJ,0.05,-2.26255,,Fm-3m
JVASP-65742,BaTlP2,FAILED_JVASP-65742.cif,0.0,0.0,mBJ,0.0,-0.30638,,P4/mmm
JVASP-62325,K2AsAuS4,FAILED_JVASP-62325.cif,0.726,1.73,mBJ,1.004,-0.70805,,P2_1/m
JVASP-65404,BaCo2Sb,FAILED_JVASP-65404.cif,0.0,0.0,mBJ,0.0,0.3627,,P4/mmm
JVASP-86400,Li2ZrN2,FAILED_JVASP-86400.cif,1.792,2.358,mBJ,0.566,-1.32995,,P-3m1
JVASP-69315,BaCuCl2,FAILED_JVASP-69315.cif,0.0,0.251,mBJ,0.251,-1.1802,,P4mm
JVASP-65561,Ba2LiSb,FAILED_JVASP-65561.cif,0.0,0.0,mBJ,0.0,-0.61251,,Fm-3m
JVASP-69239,BaSrLi2,FAILED_JVASP-69239.cif,0.0,0.0,mBJ,0.0,0.04059,,P4/mmm
JVASP-15982,BaAg2Sn2,FAILED_JVASP-15982.cif,0.0,0.0,mBJ,0.0,-0.42764,,I4/mmm
JVASP-42250,LiMn2Cr2O8,FAILED_JVASP-42250.cif,0.0,0.0,mBJ,0.0,-1.93281,,C2/m
JVASP-65317,BeCo4Te,FAILED_JVASP-65317.cif,0.0,0.0,mBJ,0.0,0.43631,,F-43m
JVASP-90653,GaPt3,FAILED_JVASP-90653.cif,0.0,0.0,mBJ,0.0,-0.40612,,P4/mbm
JVASP-91537,PbS,FAILED_JVASP-91537.cif,0.298,0.759,mBJ,0.461,-0.42631,,Amm2
JVASP-69000,BaYPt2,FAILED_JVASP-69000.cif,0.0,0.0,mBJ,0.0,-0.82737,,P4/mmm
JVASP-90191,Rb2MnCl4O2,FAILED_JVASP-90191.cif,0.574,0.484,mBJ,-0.09,-1.38065,,P-1
JVASP-65528,Ba2TiSb,FAILED_JVASP-65528.cif,0.0,0.0,mBJ,0.0,-0.04254,,Fm-3m
JVASP-91810,KI,FAILED_JVASP-91810.cif,4.0,6.547,mBJ,2.547,-1.5625,,P6_3/mmc
JVASP-86754,Rb2Te,FAILED_JVASP-86754.cif,1.882,3.157,mBJ,1.275,-1.09468,,Pnma
JVASP-65247,Ca4BeV,FAILED_JVASP-65247.cif,0.0,0.0,mBJ,0.0,1.22804,,F-43m
JVASP-65596,K2BaP,FAILED_JVASP-65596.cif,0.0,0.0,mBJ,0.0,-0.38071,,P4mm
JVASP-69277,Ba2HgBr,FAILED_JVASP-69277.cif,0.0,0.0,mBJ,0.0,-0.89171,,Fm-3m
JVASP-16048,CaSi2,FAILED_JVASP-16048.cif,0.0,0.0,mBJ,0.0,-0.40857,,P-3m1
JVASP-92219,NaTlO2,FAILED_JVASP-92219.cif,0.761,1.673,mBJ,0.912,-1.20589,,I4_1/amd
JVASP-65670,Ba2GaSe,FAILED_JVASP-65670.cif,0.0,0.0,mBJ,0.0,-0.88686,,Fm-3m
JVASP-69042,Ba2HfTe,FAILED_JVASP-69042.cif,0.0,0.0,mBJ,0.0,0.04112,,Fm-3m
JVASP-66051,BaCaSe,FAILED_JVASP-66051.cif,0.0,0.0,mBJ,0.0,-0.39568,,F-43m
JVASP-85486,TePb2O5,FAILED_JVASP-85486.cif,2.23,2.886,mBJ,0.656,-1.2586,,C2/c
JVASP-66090,Ba4MgOs,FAILED_JVASP-66090.cif,0.0,0.0,mBJ,0.0,1.07851,,F-43m
JVASP-65788,Ba2NaFe,FAILED_JVASP-65788.cif,0.0,0.0,mBJ,0.0,0.47257,,Fm-3m
JVASP-65529,BaZr4Ni,FAILED_JVASP-65529.cif,0.0,0.0,mBJ,0.0,0.68714,,F-43m
JVASP-65633,Ba2BiCl,FAILED_JVASP-65633.cif,0.992,1.471,mBJ,0.479,-1.56595,,Fm-3m
JVASP-63056,CaB2H8,FAILED_JVASP-63056.cif,5.021,6.956,mBJ,1.935,-0.36039,,I-42d
JVASP-62790,NdBN2,FAILED_JVASP-62790.cif,2.202,3.131,mBJ,0.929,-1.50853,,R3c
JVASP-65472,BaGaFe2,FAILED_JVASP-65472.cif,0.0,0.0,mBJ,0.0,0.80523,,P4/mmm
JVASP-69120,Ba2CrBr,FAILED_JVASP-69120.cif,0.0,0.0,mBJ,0.0,-0.20803,,Fm-3m
JVASP-92169,Co3Mo,FAILED_JVASP-92169.cif,0.0,0.0,mBJ,0.0,-0.09324,,P6_3/mmc
JVASP-86799,Mg3Bi2,FAILED_JVASP-86799.cif,0.007,0.379,mBJ,0.372,-0.26708,,P-3m1
JVASP-97983,Er3FeSi3,FAILED_JVASP-97983.cif,0.0,0.0,mBJ,0.0,-0.7418,,C2/m
JVASP-90830,Ti3Pd5,FAILED_JVASP-90830.cif,0.0,0.0,mBJ,0.0,-0.30259,,P4/mmm
JVASP-85684,HgH2NCl,FAILED_JVASP-85684.cif,2.554,3.939,mBJ,1.385,-0.25372,,Pmma
JVASP-85738,U2InRh2,FAILED_JVASP-85738.cif,0.0,0.0,mBJ,0.0,-0.42971,,P4/mbm
JVASP-228,MoS2,FAILED_JVASP-228.cif,0.0,0.0,mBJ,0.0,-0.69909,,R-3m
JVASP-61574,BAsO4,FAILED_JVASP-61574.cif,4.469,6.027,mBJ,1.558,-1.73733,,I-4
JVASP-86522,BaB2F8,FAILED_JVASP-86522.cif,8.458,10.256,mBJ,1.798,-3.35677,,C2/m
JVASP-66053,BaGaSb,FAILED_JVASP-66053.cif,0.516,0.642,mBJ,0.126,-0.27044,,F-43m
JVASP-20061,NdCd,FAILED_JVASP-20061.cif,0.0,0.0,mBJ,0.0,-0.35218,,Pm-3m
JVASP-69081,K2BaMn,FAILED_JVASP-69081.cif,0.0,0.0,mBJ,0.0,0.49661,,P4mm
JVASP-86463,LiAlTe2,FAILED_JVASP-86463.cif,2.495,3.028,mBJ,0.533,-0.77762,,I-42d
JVASP-69280,Ba2BiMo,FAILED_JVASP-69280.cif,0.0,0.0,mBJ,0.0,0.3893,,Fm-3m
JVASP-3870,Rb2SeCl6,FAILED_JVASP-3870.cif,2.395,2.931,mBJ,0.536,-1.21556,,Fm-3m
JVASP-65174,Li4MnBe,FAILED_JVASP-65174.cif,0.0,0.0,mBJ,0.0,0.65461,,F-43m
JVASP-14704,MnRh,FAILED_JVASP-14704.cif,0.0,0.0,mBJ,0.0,0.39013,,Pm-3m
JVASP-88048,MgCO3,FAILED_JVASP-88048.cif,5.696,8.1,mBJ,2.404,-1.80284,,C222_1
JVASP-62327,NaAlBP2H3O10,FAILED_JVASP-62327.cif,6.235,8.426,mBJ,2.191,-2.21714,,C2/c
JVASP-85948,CF2,FAILED_JVASP-85948.cif,4.854,7.9,mBJ,3.046,-1.27225,,P-1
JVASP-69161,BaFePt2,FAILED_JVASP-69161.cif,0.0,0.0,mBJ,0.0,0.24496,,I4/mmm
JVASP-66126,BaCaHg,FAILED_JVASP-66126.cif,0.0,0.0,mBJ,0.0,0.25679,,F-43m
JVASP-60794,CaB2H10N2,FAILED_JVASP-60794.cif,3.81,5.588,mBJ,1.778,-0.45732,,C2
JVASP-69367,BaRu2Pt,FAILED_JVASP-69367.cif,0.0,0.0,mBJ,0.0,0.82576,,P4/mmm
JVASP-65562,BaSiTe2,FAILED_JVASP-65562.cif,0.0,0.0,mBJ,0.0,-0.47371,,P4/mmm
JVASP-69240,BaSc2Nb,FAILED_JVASP-69240.cif,0.0,0.0,mBJ,0.0,0.61367,,P4/mmm
JVASP-3285,AlAgSe2,FAILED_JVASP-3285.cif,1.219,2.359,mBJ,1.14,-0.6495,,I-42d
JVASP-61586,AuO2F6,FAILED_JVASP-61586.cif,0.383,0.557,mBJ,0.174,-0.69474,,P-1
JVASP-65789,BaLiBi2,FAILED_JVASP-65789.cif,0.0,0.0,mBJ,0.0,-0.34622,,P4mm
JVASP-65248,TiBeW,FAILED_JVASP-65248.cif,0.0,0.0,mBJ,0.0,-0.12604,,I4mm
JVASP-69002,BaV2P,FAILED_JVASP-69002.cif,0.0,0.0,mBJ,0.0,0.73258,,P4/mmm
JVASP-65175,BeFePd,FAILED_JVASP-65175.cif,0.0,0.0,mBJ,0.0,-0.20836,,I4mm
JVASP-66165,BaNbHg,FAILED_JVASP-66165.cif,0.0,0.0,mBJ,0.0,1.3834,,F-43m
JVASP-69043,BaRu2Pt,FAILED_JVASP-69043.cif,0.0,0.0,mBJ,0.0,0.8247,,P4/mmm
JVASP-65744,BaTa2Se,FAILED_JVASP-65744.cif,0.0,0.0,mBJ,0.0,0.73009,,I4/mmm
JVASP-65634,BaTi2Ga,FAILED_JVASP-65634.cif,0.0,0.0,mBJ,0.0,0.51456,,P4/mmm
JVASP-65597,BaV2Cu,FAILED_JVASP-65597.cif,0.0,0.0,mBJ,0.0,1.1465,,I4/mmm
JVASP-65407,BaZnCr2,FAILED_JVASP-65407.cif,0.0,0.0,mBJ,0.0,0.80573,,P4/mmm
JVASP-69204,Ba2ZnPb,FAILED_JVASP-69204.cif,0.0,0.0,mBJ,0.0,-0.50853,,Fm-3m
JVASP-66054,BaCaSn,FAILED_JVASP-66054.cif,0.098,0.32,mBJ,0.222,-0.08966,,F-43m
JVASP-68963,BaLiCa2,FAILED_JVASP-68963.cif,0.0,0.0,mBJ,0.0,0.02875,,P4mm
JVASP-69323,Ba2CaTa,FAILED_JVASP-69323.cif,0.0,0.0,mBJ,0.0,0.86476,,Fm-3m
JVASP-65672,Ba2HgCl,FAILED_JVASP-65672.cif,0.0,0.0,mBJ,0.0,-0.97129,,Fm-3m
JVASP-91628,MgSiH2O4,FAILED_JVASP-91628.cif,5.227,6.654,mBJ,1.427,-2.15886,,Pm
JVASP-65289,Na4BeTc,FAILED_JVASP-65289.cif,0.0,0.0,mBJ,0.0,1.07816,,F-43m
JVASP-53085,LuAgS2,FAILED_JVASP-53085.cif,0.848,1.991,mBJ,1.143,-1.41439,,P1
JVASP-15697,ScSnAu,FAILED_JVASP-15697.cif,0.0,0.0,mBJ,0.0,-0.70334,,P6_3mc
JVASP-69082,Ba2CrBi,FAILED_JVASP-69082.cif,0.0,0.0,mBJ,0.0,-0.10842,,Fm-3m
JVASP-65598,BaBi2Cl,FAILED_JVASP-65598.cif,0.0,0.0,mBJ,0.0,-1.07199,,P4mm
JVASP-65711,BaNa2Hg,FAILED_JVASP-65711.cif,0.0,0.0,mBJ,0.0,-0.07724,,P4/mmm
JVASP-65211,BeSeBr4,FAILED_JVASP-65211.cif,0.0,0.0,mBJ,0.0,1.04373,,F-43m
JVASP-53555,MnIn2Te4,FAILED_JVASP-53555.cif,0.0,0.0,mBJ,0.0,-0.22398,,I-42m
JVASP-66055,Ba4VP,FAILED_JVASP-66055.cif,0.0,0.0,mBJ,0.0,1.04914,,F-43m
JVASP-15076,FePd,FAILED_JVASP-15076.cif,0.0,0.0,mBJ,0.0,-0.02286,,P4/mmm
JVASP-62936,BH2N,FAILED_JVASP-62936.cif,4.945,6.172,mBJ,1.227,-0.56276,,P4_32_12
JVASP-63714,TbCrB4,FAILED_JVASP-63714.cif,0.256,0.234,mBJ,-0.022,-0.66445,,Pbam
JVASP-69122,BaYPd2,FAILED_JVASP-69122.cif,0.0,0.091,mBJ,0.091,-0.53059,,P4/mmm
JVASP-66247,Ba4MoRu,FAILED_JVASP-66247.cif,0.0,0.0,mBJ,0.0,1.56335,,F-43m
JVASP-65563,BaMgCl2,FAILED_JVASP-65563.cif,0.054,0.435,mBJ,0.381,-1.61043,,P4mm
JVASP-66326,BaNaCr,FAILED_JVASP-66326.cif,0.0,0.0,mBJ,0.0,1.0043,,F-43m
JVASP-65176,Mn4BeSb,FAILED_JVASP-65176.cif,0.0,0.0,mBJ,0.0,0.41829,,F-43m
JVASP-65531,BaSrTi2,FAILED_JVASP-65531.cif,0.0,0.0,mBJ,0.0,0.92639,,P4/mmm
JVASP-90786,MgTi3,FAILED_JVASP-90786.cif,0.0,0.0,mBJ,0.0,0.13367,,Pmmn
JVASP-66166,BaNaZn,FAILED_JVASP-66166.cif,0.0,0.0,mBJ,0.0,0.2304,,F-43m
JVASP-62131,ScAu4,FAILED_JVASP-62131.cif,0.0,0.0,mBJ,0.0,-0.58501,,I4/m
JVASP-69244,BaSc4Fe,FAILED_JVASP-69244.cif,0.0,0.0,mBJ,0.0,0.69411,,F-43m
JVASP-69003,Ba2YSb,FAILED_JVASP-69003.cif,0.0,0.0,mBJ,0.0,-0.17354,,Fm-3m
JVASP-15779,Ho,FAILED_JVASP-15779.cif,0.0,0.0,mBJ,0.0,0.14817,,Im-3m
JVASP-86173,KCoAu3C6N6,FAILED_JVASP-86173.cif,0.0,0.964,mBJ,0.964,0.18184,,P312
JVASP-65635,Ba2MgGa,FAILED_JVASP-65635.cif,0.0,0.0,mBJ,0.0,-0.23906,,Fm-3m
JVASP-66374,Ba4ZrTc,FAILED_JVASP-66374.cif,0.0,0.0,mBJ,0.0,1.42231,,F-43m
JVASP-69163,BaCaBr2,FAILED_JVASP-69163.cif,0.0,0.0,mBJ,0.0,-1.57027,,P4mm
JVASP-66134,BaTcTe,FAILED_JVASP-66134.cif,0.0,0.0,mBJ,0.0,0.96183,,F-43m
JVASP-66452,Ba4GaMo,FAILED_JVASP-66452.cif,0.0,0.0,mBJ,0.0,1.16466,,F-43m
JVASP-69044,BaSc4Pt,FAILED_JVASP-69044.cif,0.0,0.0,mBJ,0.0,0.29645,,F-43m
JVASP-3339,KAgSe,FAILED_JVASP-3339.cif,0.564,1.44,HSE,0.876,-0.72458,,P4/nmm
JVASP-63064,Sr3TaAs3O,FAILED_JVASP-63064.cif,1.324,1.732,mBJ,0.408,-1.57818,,Pnma
JVASP-65600,BaZrTe2,FAILED_JVASP-65600.cif,0.0,0.0,mBJ,0.0,-0.85129,,P4mm
JVASP-68966,BaLiPd2,FAILED_JVASP-68966.cif,0.0,0.0,mBJ,0.0,-0.3145,,P4/mmm
JVASP-65409,BaBeV2,FAILED_JVASP-65409.cif,0.0,0.0,mBJ,0.0,0.51899,,P4/mmm
JVASP-66415,Ba4NbCo,FAILED_JVASP-66415.cif,0.0,0.0,mBJ,0.0,1.3719,,F-43m
JVASP-66056,BaTaBr,FAILED_JVASP-66056.cif,0.0,0.0,mBJ,0.0,1.01616,,F-43m
JVASP-66210,Ba4TcTe,FAILED_JVASP-66210.cif,0.0,0.0,mBJ,0.0,0.72222,,F-43m
JVASP-65480,BaInIr2,FAILED_JVASP-65480.cif,0.0,0.0,mBJ,0.0,0.1366,,P4/mmm
JVASP-66453,Ba4HfZr,FAILED_JVASP-66453.cif,0.0,0.0,mBJ,0.0,1.11074,,F-43m
JVASP-62513,H3AuC2NCl,FAILED_JVASP-62513.cif,3.443,3.946,mBJ,0.503,-0.03986,,P2_1/m
JVASP-53265,AlFe2Mo,FAILED_JVASP-53265.cif,0.0,0.0,mBJ,0.0,-0.21341,,Fm-3m
JVASP-3288,AlAgTe2,FAILED_JVASP-3288.cif,1.074,1.994,mBJ,0.92,-0.36204,,I-42d
JVASP-3876,Rb2ZrCl6,FAILED_JVASP-3876.cif,3.488,4.002,mBJ,0.514,-2.07809,,Fm-3m
JVASP-66099,BaLiCd,FAILED_JVASP-66099.cif,0.0,0.0,mBJ,0.0,0.20217,,F-43m
JVASP-62940,BN,FAILED_JVASP-62940.cif,4.46,6.114,mBJ,1.654,-1.38443,,P6_3/mmc
JVASP-66251,Ba4TiTc,FAILED_JVASP-66251.cif,0.0,0.0,mBJ,0.0,1.41709,,F-43m
JVASP-65250,TaBeNb,FAILED_JVASP-65250.cif,0.0,0.0,mBJ,0.0,0.04954,,I4mm
JVASP-69370,BaSi2Mo,FAILED_JVASP-69370.cif,0.0,0.0,mBJ,0.0,0.94675,,P4/mmm
JVASP-65746,BaP2Br,FAILED_JVASP-65746.cif,0.0,0.0,mBJ,0.0,-0.40531,,P4/mmm
JVASP-65675,BaRu2Cl,FAILED_JVASP-65675.cif,0.0,0.0,mBJ,0.0,0.88743,,P4/mmm
JVASP-63201,YbAlB4,FAILED_JVASP-63201.cif,0.0,0.0,mBJ,0.0,-0.23246,,Pmmm
JVASP-18785,ZnPt3,FAILED_JVASP-18785.cif,0.0,0.0,mBJ,0.0,-0.31473,,Pm-3m
JVASP-66329,BaTaCl,FAILED_JVASP-66329.cif,0.0,0.0,mBJ,0.0,0.95058,,F-43m
JVASP-65178,K4BeNb,FAILED_JVASP-65178.cif,0.0,0.0,mBJ,0.0,1.31649,,F-43m
JVASP-63844,UB2,FAILED_JVASP-63844.cif,0.0,0.0,mBJ,0.0,-0.57999,,P6/mmm
JVASP-65565,Ba2MgMn,FAILED_JVASP-65565.cif,0.0,0.0,mBJ,0.0,0.32813,,Fm-3m
JVASP-90831,MnTe,FAILED_JVASP-90831.cif,0.0,0.0,mBJ,0.0,0.01226,,P6_3/mmc
JVASP-62144,PAuCl8,FAILED_JVASP-62144.cif,1.727,2.217,mBJ,0.49,-0.48514,,Imma
JVASP-69326,Ba2ScCd,FAILED_JVASP-69326.cif,0.0,0.0,mBJ,0.0,0.11122,,Fm-3m
JVASP-86325,BaSnO3,FAILED_JVASP-86325.cif,0.578,2.166,mBJ,1.588,-2.39288,,Pm-3m
JVASP-66135,BaTeCl,FAILED_JVASP-66135.cif,0.0,0.0,mBJ,0.0,-1.43476,,F-43m
JVASP-66573,BaZrCl,FAILED_JVASP-66573.cif,0.0,0.0,mBJ,0.0,0.52469,,F-43m
JVASP-43552,FeO,FAILED_JVASP-43552.cif,0.0,0.0,mBJ,0.0,-1.09786,,P4_2/mmc
JVASP-91965,CaPbF6,FAILED_JVASP-91965.cif,3.477,5.106,mBJ,1.629,-2.7603,,Fm-3m
JVASP-90270,RbBe2BO3F2,FAILED_JVASP-90270.cif,6.354,9.526,mBJ,3.172,-3.03793,,R32
JVASP-14555,DyHg,FAILED_JVASP-14555.cif,0.0,0.0,mBJ,0.0,-0.38695,,Pm-3m
JVASP-14631,Zr2Pd,FAILED_JVASP-14631.cif,0.0,0.0,mBJ,0.0,-0.50845,,I4/mmm
JVASP-61327,Al2SiO5,FAILED_JVASP-61327.cif,5.923,7.254,mBJ,1.331,-3.17031,,P-1
JVASP-65534,Ba2ZnIn,FAILED_JVASP-65534.cif,0.0,0.0,mBJ,0.0,-0.37871,,Fm-3m
JVASP-69045,BaVTe2,FAILED_JVASP-69045.cif,0.0,0.0,mBJ,0.0,-0.58254,,P4mm
JVASP-63424,Y3Au2,FAILED_JVASP-63424.cif,0.0,0.0,mBJ,0.0,-0.78425,,P4/mbm
JVASP-65795,BaNa2Si,FAILED_JVASP-65795.cif,0.0,0.0,mBJ,0.0,0.18102,,P4/mmm
JVASP-15596,MnFe2Si,FAILED_JVASP-15596.cif,0.0,0.0,mBJ,0.0,-0.27804,,Fm-3m
JVASP-62335,DyFe2B2,FAILED_JVASP-62335.cif,0.0,0.0,mBJ,0.0,-0.48833,,I4/mmm
JVASP-14592,Te,FAILED_JVASP-14592.cif,0.0,0.0,mBJ,0.0,0.03832,,Pmc2_1
JVASP-65637,BaTlBr2,FAILED_JVASP-65637.cif,0.0,3.715,mBJ,3.715,-1.36607,,P4/mmm
JVASP-69284,KBaRu2,FAILED_JVASP-69284.cif,0.0,0.0,mBJ,0.0,1.14811,,I4/mmm
JVASP-69166,BaV2Sn,FAILED_JVASP-69166.cif,0.0,0.0,mBJ,0.0,0.74551,,P4/mmm
JVASP-66330,Ba4YRu,FAILED_JVASP-66330.cif,0.0,0.0,mBJ,0.0,1.05058,,F-43m
JVASP-53303,MnTe,FAILED_JVASP-53303.cif,0.0,0.0,mBJ,0.0,0.06185,,P2_1/m
JVASP-85685,EuMgH4,FAILED_JVASP-85685.cif,0.0,0.0,mBJ,0.0,-0.42558,,Cmc2_1
JVASP-65601,BaSi2Rh,FAILED_JVASP-65601.cif,0.0,0.0,mBJ,0.0,0.35028,,P4/mmm
JVASP-85326,EuCd,FAILED_JVASP-85326.cif,0.0,0.0,mBJ,0.0,-0.35767,,Pm-3m
JVASP-65292,K4BeP,FAILED_JVASP-65292.cif,0.0,0.289,mBJ,0.289,0.65587,,F-43m
JVASP-43964,Na3FeO4,FAILED_JVASP-43964.cif,0.78,1.085,mBJ,0.305,-1.61957,,P2/c
JVASP-66057,Ba4MgIr,FAILED_JVASP-66057.cif,0.0,0.0,mBJ,0.0,0.78557,,F-43m
JVASP-15307,YbSnPd2,FAILED_JVASP-15307.cif,0.0,0.0,mBJ,0.0,-0.85254,,Fm-3m
JVASP-88234,EuH3O3,FAILED_JVASP-88234.cif,3.773,6.121,mBJ,2.348,-2.04357,,P6_3/m
JVASP-66213,BaNaV,FAILED_JVASP-66213.cif,0.0,0.0,mBJ,0.0,1.22756,,F-43m
JVASP-69285,Ba2LiTe,FAILED_JVASP-69285.cif,0.0,0.0,mBJ,0.0,-0.69816,,Fm-3m
JVASP-66456,Ba4MnNb,FAILED_JVASP-66456.cif,0.0,0.0,mBJ,0.0,1.62495,,F-43m
JVASP-66419,Ba4LiIr,FAILED_JVASP-66419.cif,0.0,0.0,mBJ,0.0,0.81404,,F-43m
JVASP-66170,BaYTe,FAILED_JVASP-66170.cif,0.0,0.0,mBJ,0.0,0.10401,,F-43m
JVASP-18829,NdSi2Ag2,FAILED_JVASP-18829.cif,0.0,0.0,mBJ,0.0,-0.40323,,I4/mmm
JVASP-69371,BaGeCl2,FAILED_JVASP-69371.cif,0.0,0.0,mBJ,0.0,-1.2306,,P4/mmm
JVASP-66332,Ba4SnRh,FAILED_JVASP-66332.cif,0.0,0.0,mBJ,0.0,0.51129,,F-43m
JVASP-65566,BaLiCa2,FAILED_JVASP-65566.cif,0.0,0.0,mBJ,0.0,0.02862,,P4mm
JVASP-28369,PbS,FAILED_JVASP-28369.cif,1.2,1.873,mBJ,0.673,-0.59926,,Cmcm
JVASP-69125,Ba2CdBr,FAILED_JVASP-69125.cif,0.0,0.0,mBJ,0.0,-0.83631,,Fm-3m
JVASP-48879,LiVTe3O12,FAILED_JVASP-48879.cif,1.51,1.751,mBJ,0.241,-1.32803,,P1
JVASP-65293,BeFeCl4,FAILED_JVASP-65293.cif,0.0,0.0,mBJ,0.0,1.11071,,F-43m
JVASP-66058,Ba4CdTc,FAILED_JVASP-66058.cif,0.0,0.0,mBJ,0.0,1.04009,,F-43m
JVASP-66378,BaNaTa,FAILED_JVASP-66378.cif,0.0,0.0,mBJ,0.0,1.82092,,F-43m
JVASP-98682,AlPt2,FAILED_JVASP-98682.cif,0.0,0.0,mBJ,0.0,-0.87227,,Pmma
JVASP-86404,BAsO4,FAILED_JVASP-86404.cif,4.46,6.005,mBJ,1.545,-1.73729,,I-4
JVASP-91539,YClO2,FAILED_JVASP-91539.cif,0.0,0.0,mBJ,0.0,-2.00402,,P2_1/m
JVASP-97339,Dy2SiSeO4,FAILED_JVASP-97339.cif,2.677,3.768,mBJ,1.091,-3.20743,,Pbcm
JVASP-50812,BaCaI4,FAILED_JVASP-50812.cif,3.2,4.052,mBJ,0.852,-1.73906,,P2/m
JVASP-64192,Ba4ZrGa,FAILED_JVASP-64192.cif,0.0,0.0,mBJ,0.0,0.73242,,F-43m
JVASP-14107,CuBr2,FAILED_JVASP-14107.cif,0.0,0.0,mBJ,0.0,-0.32759,,C2/m
JVASP-64096,Ba4LiW,FAILED_JVASP-64096.cif,0.0,0.0,mBJ,0.0,1.25578,,F-43m
JVASP-90628,N3Cl,FAILED_JVASP-90628.cif,2.199,3.112,mBJ,0.913,0.75511,,Cmc2_1
JVASP-1999,RbCl,FAILED_JVASP-1999.cif,5.075,7.876,mBJ,2.801,-2.07202,,Fm-3m
JVASP-64794,Ba4LiCr,FAILED_JVASP-64794.cif,0.0,0.0,mBJ,0.0,0.77241,,F-43m
JVASP-64190,Ba4CoTe,FAILED_JVASP-64190.cif,0.0,0.0,mBJ,0.0,0.51265,,F-43m
JVASP-87104,NaLiTe,FAILED_JVASP-87104.cif,2.526,3.45,mBJ,0.924,-1.07556,,Pnma
JVASP-85923,BaB2F8,FAILED_JVASP-85923.cif,8.457,10.257,mBJ,1.8,-3.35651,,C2/m
JVASP-21521,Na6Sn2S7,FAILED_JVASP-21521.cif,2.023,3.486,mBJ,1.463,-1.01144,,C2/c
JVASP-37193,Mn2CuSb,FAILED_JVASP-37193.cif,0.0,0.0,mBJ,0.0,0.36168,,F-43m
JVASP-64248,Ba4ScGa,FAILED_JVASP-64248.cif,0.0,0.0,mBJ,0.0,0.55472,,F-43m
JVASP-87042,KN3,FAILED_JVASP-87042.cif,4.393,5.475,mBJ,1.082,-0.22303,,I4/mcm
JVASP-39408,LiFePd2,FAILED_JVASP-39408.cif,0.0,0.0,mBJ,0.0,-0.22963,,Fm-3m
JVASP-1357,SrTe,FAILED_JVASP-1357.cif,1.772,2.31,mBJ,0.538,-1.85517,,Fm-3m
JVASP-38330,RbBO3,FAILED_JVASP-38330.cif,0.0,0.0,mBJ,0.0,-0.42488,,Pm-3m
JVASP-37043,Ti3Ga,FAILED_JVASP-37043.cif,0.0,0.0,mBJ,0.0,-0.17793,,Fm-3m
JVASP-16044,MnB,FAILED_JVASP-16044.cif,0.0,0.0,mBJ,0.0,-0.42559,,Pnma
JVASP-91523,Tl2SiHgSe4,FAILED_JVASP-91523.cif,1.093,1.609,mBJ,0.516,-0.3522,,I-42m
JVASP-19924,U2N3,FAILED_JVASP-19924.cif,0.031,0.0,mBJ,-0.031,-1.58919,,P-3m1
JVASP-3261,Er2SeO2,FAILED_JVASP-3261.cif,2.327,3.646,mBJ,1.319,-3.34343,,P-3m1
JVASP-38302,RbNaO3,FAILED_JVASP-38302.cif,0.0,0.0,mBJ,0.0,-0.29082,,Pm-3m
JVASP-12106,VCuO4,FAILED_JVASP-12106.cif,0.133,0.107,mBJ,-0.026,-1.59764,,Imma
JVASP-63918,BaHfBr,FAILED_JVASP-63918.cif,0.0,0.0,mBJ,0.0,0.66506,,F-43m
JVASP-64134,Ba4WCl,FAILED_JVASP-64134.cif,0.0,0.0,mBJ,0.0,0.84143,,F-43m
JVASP-5491,V2Se9,FAILED_JVASP-5491.cif,0.5,0.739,mBJ,0.239,-0.38941,,C2/c
JVASP-1843,LiHoSe2,FAILED_JVASP-1843.cif,1.599,2.203,mBJ,0.604,-1.78168,,R-3m
JVASP-39279,FePbO3,FAILED_JVASP-39279.cif,0.0,0.0,mBJ,0.0,-1.31423,,Pm-3m
JVASP-37144,NbFe3,FAILED_JVASP-37144.cif,0.0,0.0,mBJ,0.0,-0.05766,,Fm-3m
JVASP-64049,Ba4FeBr,FAILED_JVASP-64049.cif,0.0,0.0,mBJ,0.0,0.71643,,F-43m
JVASP-577,NbS2,FAILED_JVASP-577.cif,0.0,0.0,mBJ,0.0,-1.08445,,R-3m
JVASP-3102,K2CN2,FAILED_JVASP-3102.cif,3.636,5.904,mBJ,2.268,-0.61732,,C2/m
JVASP-49777,Zr3N4,FAILED_JVASP-49777.cif,1.124,1.495,mBJ,0.371,-1.71924,,R-3m
JVASP-19903,YAs,FAILED_JVASP-19903.cif,0.0,0.0,mBJ,0.0,-1.64358,,Fm-3m
JVASP-37102,Sc2MnSn,FAILED_JVASP-37102.cif,0.0,0.0,mBJ,0.0,-0.16631,,F-43m
JVASP-22699,BiOF,FAILED_JVASP-22699.cif,2.821,4.494,mBJ,1.673,-1.97912,,P4/nmm
JVASP-15833,CoS2,FAILED_JVASP-15833.cif,0.0,0.0,mBJ,0.0,-0.14855,,I-42d
JVASP-39452,RuAu3,FAILED_JVASP-39452.cif,0.0,0.0,mBJ,0.0,0.36851,,I4/mmm
JVASP-14831,Si,FAILED_JVASP-14831.cif,0.0,0.0,mBJ,0.0,0.39502,,I4_1/amd
JVASP-43629,MgO,FAILED_JVASP-43629.cif,3.857,5.755,mBJ,1.898,-2.8907,,P6_3mc