material_id,formula,cif_path,pbe_bandgap,hse_bandgap,gap_type,correction,formation_energy,total_energy,spacegroup
JVASP-11782,Rb2LiVO4,FAILED_JVASP-11782.cif,3.769,3.937,mBJ,0.168,-2.4413,,Cmc2_1
JVASP-9415,Na3AgO2,FAILED_JVASP-9415.cif,1.351,2.537,mBJ,1.186,-1.21152,,Ibam
JVASP-78549,MgTi,FAILED_JVASP-78549.cif,0.0,0.0,mBJ,0.0,0.26518,,Pm-3m
JVASP-78495,MnSiNi,FAILED_JVASP-78495.cif,0.0,0.0,mBJ,0.0,-0.18642,,F-43m
JVASP-10879,SrBe2N2,FAILED_JVASP-10879.cif,2.125,3.202,mBJ,1.077,-1.27679,,I4/mcm
JVASP-78496,Li2N,FAILED_JVASP-78496.cif,0.0,0.0,mBJ,0.0,-0.24894,,Fm-3m
JVASP-34270,PbCClO2,FAILED_JVASP-34270.cif,2.91,3.713,mBJ,0.803,-1.27453,,C2/m
JVASP-57237,HoF3,FAILED_JVASP-57237.cif,8.087,9.872,mBJ,1.785,-4.37421,,Pnma
JVASP-78929,CoO2,FAILED_JVASP-78929.cif,0.0,0.0,mBJ,0.0,-0.99171,,P-3m1
JVASP-11783,Na4WN2O2,FAILED_JVASP-11783.cif,1.364,4.44,mBJ,3.076,-1.30693,,P-1
JVASP-78585,VSiRh,FAILED_JVASP-78585.cif,0.39,0.293,mBJ,-0.097,-0.49461,,F-43m
JVASP-9563,Zn2Bi2O5,FAILED_JVASP-9563.cif,1.541,2.438,mBJ,0.897,-1.35741,,Pmc2_1
JVASP-34273,AgClO2,FAILED_JVASP-34273.cif,0.9,2.434,mBJ,1.534,0.18243,,Aem2
JVASP-10586,TaAgO3,FAILED_JVASP-10586.cif,1.855,2.414,mBJ,0.559,-2.18746,,R-3c
JVASP-78586,ScTlCd,FAILED_JVASP-78586.cif,0.0,0.0,mBJ,0.0,0.06545,,F-43m
JVASP-78338,Cr,FAILED_JVASP-78338.cif,0.0,0.0,mBJ,0.0,-3e-05,,Im-3m
JVASP-10880,Rb2TaCuS4,FAILED_JVASP-10880.cif,2.398,2.602,mBJ,0.204,-1.21032,,Fddd
JVASP-36215,WC,FAILED_JVASP-36215.cif,0.0,0.0,mBJ,0.0,0.22249,,F-43m
JVASP-24591,K2TeI6,FAILED_JVASP-24591.cif,1.6,1.982,mBJ,0.382,-0.79409,,P2_1/c
JVASP-34274,Ba2PrNbO6,FAILED_JVASP-34274.cif,3.115,3.795,mBJ,0.68,-3.19407,,R-3
JVASP-78499,NdPd2,FAILED_JVASP-78499.cif,0.0,0.0,mBJ,0.0,-0.55234,,I4/mmm
JVASP-57095,KRb2FeF6,FAILED_JVASP-57095.cif,0.0,0.0,mBJ,0.0,-2.6935,,Fm-3m
JVASP-57381,RbPrMo2O8,FAILED_JVASP-57381.cif,3.754,4.168,mBJ,0.414,-2.62428,,P4/nnc
JVASP-34276,Ba2TaBiO6,FAILED_JVASP-34276.cif,2.771,3.864,mBJ,1.093,-2.75637,,Fm-3m
JVASP-78340,Mg,FAILED_JVASP-78340.cif,0.0,0.0,mBJ,0.0,0.0131,,Fm-3m
JVASP-78587,VTeRu,FAILED_JVASP-78587.cif,0.0,0.453,mBJ,0.453,-0.0545,,F-43m
JVASP-78440,KB,FAILED_JVASP-78440.cif,0.0,0.0,mBJ,0.0,1.88621,,Fm-3m
JVASP-12739,Au2O3,FAILED_JVASP-12739.cif,0.973,1.384,mBJ,0.411,-0.17635,,Fdd2
JVASP-78500,SmCd2,FAILED_JVASP-78500.cif,0.0,0.0,mBJ,0.0,-0.36501,,P6/mmm
JVASP-49874,Na4Ti3O8,FAILED_JVASP-49874.cif,2.215,2.712,mBJ,0.497,-2.70334,,C2/m
JVASP-12412,Ba2SmNbO6,FAILED_JVASP-12412.cif,2.924,3.677,mBJ,0.753,-3.24023,,Fm-3m
JVASP-78935,VIr,FAILED_JVASP-78935.cif,0.0,0.0,mBJ,0.0,-0.54835,,Cmmm
JVASP-57626,KCrF3,FAILED_JVASP-57626.cif,0.0,0.0,mBJ,0.0,-2.66279,,I4/mcm
JVASP-57491,K2S,FAILED_JVASP-57491.cif,2.405,4.303,mBJ,1.898,-1.1804,,P6_3/mmc
JVASP-78841,KNO2,FAILED_JVASP-78841.cif,2.454,3.874,mBJ,1.42,-1.00425,,Imm2
JVASP-78343,N,FAILED_JVASP-78343.cif,0.0,0.0,mBJ,0.0,4.32933,,Fm-3m
JVASP-78588,CaZnSi,FAILED_JVASP-78588.cif,0.0,0.0,mBJ,0.0,-0.30779,,F-43m
JVASP-79062,Na3Be,FAILED_JVASP-79062.cif,0.0,0.0,mBJ,0.0,0.44484,,Fm-3m
JVASP-78502,Sr2Ir,FAILED_JVASP-78502.cif,0.0,0.394,mBJ,0.394,-0.25316,,Fm-3m
JVASP-12932,RbBrF4,FAILED_JVASP-12932.cif,3.07,4.988,mBJ,1.918,-1.65484,,I4/mcm
JVASP-24592,PH4Br,FAILED_JVASP-24592.cif,4.171,5.447,mBJ,1.276,-0.1748,,P4/nmm
JVASP-50167,CdBiO3,FAILED_JVASP-50167.cif,0.767,1.09,mBJ,0.323,-1.15633,,R3
JVASP-9147,HfO2,FAILED_JVASP-9147.cif,4.123,5.664,mBJ,1.541,-3.80998,,P2_1/c
JVASP-78811,SrF2,FAILED_JVASP-78811.cif,7.077,10.59,mBJ,3.513,-4.15729,,Fm-3m
JVASP-52630,K2O,FAILED_JVASP-52630.cif,0.351,3.97,mBJ,3.619,-1.15441,,P-1
JVASP-57828,AgHgSI,FAILED_JVASP-57828.cif,1.16,2.164,mBJ,1.004,-0.12168,,Pmma
JVASP-79122,TmLuRu2,FAILED_JVASP-79122.cif,0.0,0.0,mBJ,0.0,-0.50062,,Fm-3m
JVASP-4831,Sr2Si,FAILED_JVASP-4831.cif,0.0,0.0,mBJ,0.0,-0.38791,,P6_3/mmc
JVASP-9416,TbAl8Fe4,FAILED_JVASP-9416.cif,0.0,0.0,mBJ,0.0,-0.44094,,I4/mmm
JVASP-78939,VNiSb,FAILED_JVASP-78939.cif,0.0,0.0,mBJ,0.0,-0.08516,,F-43m
JVASP-79229,FeCuS2,FAILED_JVASP-79229.cif,0.0,0.0,mBJ,0.0,-0.34689,,R3m
JVASP-79182,Mg3Mn,FAILED_JVASP-79182.cif,0.0,0.0,mBJ,0.0,0.23498,,Pmm2
JVASP-78628,KCN,FAILED_JVASP-78628.cif,5.444,7.264,mBJ,1.82,-0.40629,,Imm2
JVASP-78705,Rb,FAILED_JVASP-78705.cif,0.0,0.0,mBJ,0.0,-8e-05,,Cmcm
JVASP-10140,InPO4,FAILED_JVASP-10140.cif,2.635,4.67,mBJ,2.035,-2.11064,,Cmcm
JVASP-24595,Y6UO12,FAILED_JVASP-24595.cif,1.975,2.19,mBJ,0.215,-3.82697,,R-3
JVASP-78562,LiMg,FAILED_JVASP-78562.cif,0.0,0.0,mBJ,0.0,-0.07173,,Pm-3m
JVASP-36173,Co3Mo,FAILED_JVASP-36173.cif,0.0,0.0,mBJ,0.0,-0.04149,,Pm-3m
JVASP-78998,TbY3,FAILED_JVASP-78998.cif,0.0,0.0,mBJ,0.0,0.01777,,I4/mmm
JVASP-36217,CeSe,FAILED_JVASP-36217.cif,0.0,0.0,mBJ,0.0,-1.62625,,Pm-3m
JVASP-57883,Ti6O,FAILED_JVASP-57883.cif,0.0,0.0,mBJ,0.0,-0.8579,,P-31m
JVASP-10804,MnO2,FAILED_JVASP-10804.cif,0.0,0.0,mBJ,0.0,-1.60411,,R3m
JVASP-78940,CSO,FAILED_JVASP-78940.cif,4.64,5.37,mBJ,0.73,-0.53178,,R3m
JVASP-34226,RbClO2,FAILED_JVASP-34226.cif,2.556,3.792,mBJ,1.236,-0.78152,,Cmcm
JVASP-78843,Nb3Fe,FAILED_JVASP-78843.cif,0.0,0.0,mBJ,0.0,0.20402,,I4/mmm
JVASP-34561,SiAg4O4,FAILED_JVASP-34561.cif,0.863,1.494,mBJ,0.631,-1.08227,,P4_2/n
JVASP-35963,LuTlS2,FAILED_JVASP-35963.cif,1.335,2.041,mBJ,0.706,-1.61672,,R-3m
JVASP-4879,MgAl2S4,FAILED_JVASP-4879.cif,2.206,3.131,mBJ,0.925,-1.34516,,R-3m
JVASP-28773,MoSeS,FAILED_JVASP-28773.cif,0.594,0.557,mBJ,-0.037,-0.80357,,Cm
JVASP-52384,V2O3,FAILED_JVASP-52384.cif,0.0,0.0,mBJ,0.0,-2.4845,,R-3c
JVASP-78812,NbS2,FAILED_JVASP-78812.cif,0.0,0.164,mBJ,0.164,-1.11783,,R3m
JVASP-78629,PrOF,FAILED_JVASP-78629.cif,5.177,6.715,mBJ,1.538,-3.93192,,F-43m
JVASP-78503,CoO2,FAILED_JVASP-78503.cif,0.0,0.0,mBJ,0.0,-0.51038,,Cm
JVASP-12065,TeO3,FAILED_JVASP-12065.cif,0.284,1.289,mBJ,1.005,-0.14202,,P6_3/mmc
JVASP-10883,TbKGeS4,FAILED_JVASP-10883.cif,2.325,3.411,mBJ,1.086,-1.36648,,P2_1
JVASP-50540,BaCaI4,FAILED_JVASP-50540.cif,4.018,4.68,mBJ,0.662,-1.72303,,I4_1/a
JVASP-34562,SrAl4O7,FAILED_JVASP-34562.cif,3.378,5.341,mBJ,1.963,-3.19069,,Cmme
JVASP-10806,TiO2,FAILED_JVASP-10806.cif,2.389,2.839,mBJ,0.45,-3.05096,,R3m
JVASP-12740,BaTe2O6,FAILED_JVASP-12740.cif,1.908,2.54,mBJ,0.632,-1.66392,,Cmcm
JVASP-57829,NaAgN2O4,FAILED_JVASP-57829.cif,2.036,5.805,mBJ,3.769,-0.56409,,Fdd2
JVASP-55538,Sb2Pt2O7,FAILED_JVASP-55538.cif,0.639,0.656,mBJ,0.017,-0.96875,,Fd-3m
JVASP-78847,CeSe2,FAILED_JVASP-78847.cif,0.1,0.024,mBJ,-0.076,-1.37827,,P-6m2
JVASP-78564,HfMg,FAILED_JVASP-78564.cif,0.0,0.0,mBJ,0.0,0.18547,,P4/mmm
JVASP-36130,HfPt,FAILED_JVASP-36130.cif,0.0,0.0,mBJ,0.0,-1.18159,,Cmcm
JVASP-34280,Na4CO4,FAILED_JVASP-34280.cif,2.558,6.317,mBJ,3.759,-1.40885,,P-43m
JVASP-10141,Hg3S2F2,FAILED_JVASP-10141.cif,1.909,3.349,mBJ,1.44,-0.69241,,I2_13
JVASP-21,PbSe,FAILED_JVASP-21.cif,0.513,0.962,mBJ,0.449,-0.59492,,Fm-3m
JVASP-78630,SmOF,FAILED_JVASP-78630.cif,5.48,7.181,mBJ,1.701,-4.00906,,F-43m
JVASP-10808,ZnCo4S8,FAILED_JVASP-10808.cif,0.0,0.0,mBJ,0.0,-0.39616,,R-3m
JVASP-78813,YCd2,FAILED_JVASP-78813.cif,0.0,0.0,mBJ,0.0,-0.36878,,P6/mmm
JVASP-30514,RbAgO2,FAILED_JVASP-30514.cif,1.139,1.447,mBJ,0.308,-0.81249,,Cmcm
JVASP-34227,K4CO4,FAILED_JVASP-34227.cif,1.329,6.361,mBJ,5.032,-1.48267,,I-42m
JVASP-34566,Ag2S,FAILED_JVASP-34566.cif,1.087,1.936,mBJ,0.849,-0.07401,,Cmcm
JVASP-55540,InAgP2Se6,FAILED_JVASP-55540.cif,0.463,1.499,mBJ,1.036,-0.20364,,P-31c
JVASP-11521,MgCoO2,FAILED_JVASP-11521.cif,0.0,0.0,mBJ,0.0,-1.85687,,P2_1/m
JVASP-57311,NaVCdO4,FAILED_JVASP-57311.cif,2.594,3.447,mBJ,0.853,-2.0789,,Cmcm
JVASP-36259,Mn2Sb,FAILED_JVASP-36259.cif,0.0,0.0,mBJ,0.0,0.14424,,F-43m
JVASP-12788,TlCuS2,FAILED_JVASP-12788.cif,0.0,0.0,mBJ,0.0,-0.26412,,I-42d
JVASP-12933,Y2NCl3,FAILED_JVASP-12933.cif,2.114,3.062,mBJ,0.948,-2.28359,,C2/m
JVASP-57496,Ge4PbO9,FAILED_JVASP-57496.cif,3.559,8.241,mBJ,4.682,-1.68235,,C2
JVASP-78565,MgSb,FAILED_JVASP-78565.cif,0.0,0.0,mBJ,0.0,-0.10367,,Pm-3m
JVASP-59785,Nb3FeS6,FAILED_JVASP-59785.cif,0.0,0.0,mBJ,0.0,-1.10938,,P6_322
JVASP-78473,MgNi2,FAILED_JVASP-78473.cif,0.0,0.0,mBJ,0.0,-0.08634,,I4/mmm
JVASP-49662,MgFe2O4,FAILED_JVASP-49662.cif,0.0,0.0,mBJ,0.0,-1.80229,,Pnma
JVASP-13412,AgXeF9,FAILED_JVASP-13412.cif,1.438,6.097,mBJ,4.659,-0.66859,,I4/m
JVASP-78632,KHS,FAILED_JVASP-78632.cif,3.408,5.494,mBJ,2.086,-0.86679,,R3m
JVASP-50168,KRbO,FAILED_JVASP-50168.cif,1.794,4.156,mBJ,2.362,-1.10895,,P4/nmm
JVASP-79009,ScRu3,FAILED_JVASP-79009.cif,0.0,0.0,mBJ,0.0,-0.07842,,I4/mmm
JVASP-34228,MgO,FAILED_JVASP-34228.cif,3.798,5.718,mBJ,1.92,-2.90954,,P6_3mc
JVASP-55541,TiCdO3,FAILED_JVASP-55541.cif,2.349,2.749,mBJ,0.4,-2.43513,,Pmc2_1
JVASP-12741,Ga2TeS2,FAILED_JVASP-12741.cif,2.072,2.936,mBJ,0.864,-0.60054,,I4_1md
JVASP-79239,Mn3Pt,FAILED_JVASP-79239.cif,0.0,0.0,mBJ,0.0,-0.00947,,Pm-3m
JVASP-59596,AlWO4,FAILED_JVASP-59596.cif,1.212,1.77,mBJ,0.558,-2.79532,,C2/m
JVASP-78768,FeCo,FAILED_JVASP-78768.cif,0.0,0.0,mBJ,0.0,0.4139,,Pm-3m
JVASP-79139,Ce3Dy,FAILED_JVASP-79139.cif,0.0,0.0,mBJ,0.0,0.0951,,I4/mmm
JVASP-78707,HCN,FAILED_JVASP-78707.cif,6.283,7.591,mBJ,1.308,0.30023,,Imm2
JVASP-22635,InSiTe3,FAILED_JVASP-22635.cif,0.38,0.878,mBJ,0.498,-0.19404,,P-31m
JVASP-50026,Al2O3,FAILED_JVASP-50026.cif,4.616,6.038,mBJ,1.422,-3.22873,,P2_1/c
JVASP-9705,ReTeS,FAILED_JVASP-9705.cif,0.241,0.566,mBJ,0.325,-0.39811,,F-43m
JVASP-36174,CrCo3,FAILED_JVASP-36174.cif,0.0,0.0,mBJ,0.0,0.02022,,Pm-3m
JVASP-78566,MgZr,FAILED_JVASP-78566.cif,0.0,0.0,mBJ,0.0,0.07613,,P4/mmm
JVASP-50170,Al2O3,FAILED_JVASP-50170.cif,4.499,5.859,mBJ,1.36,-3.21687,,R3m
JVASP-34568,YF3,FAILED_JVASP-34568.cif,5.773,6.931,mBJ,1.158,-4.15215,,Pm-3m
JVASP-10484,Ba2SrIrO6,FAILED_JVASP-10484.cif,0.0,0.0,mBJ,0.0,-2.27066,,Fm-3m
JVASP-11012,ZnCr4S8,FAILED_JVASP-11012.cif,0.0,0.0,mBJ,0.0,-0.65082,,R-3m
JVASP-11787,YVO4,FAILED_JVASP-11787.cif,2.776,3.261,mBJ,0.485,-3.23862,,I4_1/amd
JVASP-78633,YOF,FAILED_JVASP-78633.cif,5.761,7.047,mBJ,1.286,-4.09939,,F-43m
JVASP-78946,CuAgO2,FAILED_JVASP-78946.cif,0.0,0.0,mBJ,0.0,-0.49551,,P-1
JVASP-30615,TeO3,FAILED_JVASP-30615.cif,0.283,1.087,mBJ,0.804,-0.14202,,P6_3/mmc
JVASP-10485,Rb2SnSe3,FAILED_JVASP-10485.cif,1.603,2.683,mBJ,1.08,-0.94969,,P-1
JVASP-78505,FeO2,FAILED_JVASP-78505.cif,0.0,0.0,mBJ,0.0,-1.27293,,P-3m1
JVASP-29643,HgCN2,FAILED_JVASP-29643.cif,1.994,3.019,mBJ,1.025,0.53822,,P2_1/c
JVASP-51421,TbOF,FAILED_JVASP-51421.cif,3.278,6.408,mBJ,3.13,-3.84564,,C2/m
JVASP-36218,AgC,FAILED_JVASP-36218.cif,0.0,0.0,mBJ,0.0,2.14767,,Fm-3m
JVASP-79242,IrPb,FAILED_JVASP-79242.cif,0.0,0.0,mBJ,0.0,0.24619,,P6_3/mmc
JVASP-79075,Ho2AgIr,FAILED_JVASP-79075.cif,0.0,0.0,mBJ,0.0,-0.71697,,Fm-3m
JVASP-78779,CeBi,FAILED_JVASP-78779.cif,0.0,0.348,mBJ,0.348,-0.8335,,Fm-3m
JVASP-10884,KPrGeSe4,FAILED_JVASP-10884.cif,1.521,2.308,mBJ,0.787,-1.18076,,P2_1
JVASP-10142,GeF2,FAILED_JVASP-10142.cif,4.299,6.307,mBJ,2.008,-2.20942,,P2_12_12_1
JVASP-78818,DyHg2,FAILED_JVASP-78818.cif,0.0,0.0,mBJ,0.0,-0.22841,,P6/mmm
JVASP-50542,HfBiO4,FAILED_JVASP-50542.cif,1.052,1.462,mBJ,0.41,-2.4465,,P-1
JVASP-10486,K3AlO3,FAILED_JVASP-10486.cif,3.259,5.793,mBJ,2.534,-2.22083,,C2/m
JVASP-59597,AlV2O4,FAILED_JVASP-59597.cif,0.0,0.0,mBJ,0.0,-2.6476,,R-3m
JVASP-79188,Mg3Fe,FAILED_JVASP-79188.cif,0.0,0.0,mBJ,0.0,0.24442,,Pmm2
JVASP-9512,CrSiO5,FAILED_JVASP-9512.cif,0.795,1.047,mBJ,0.252,-2.05297,,P1
JVASP-78506,K2Pt,FAILED_JVASP-78506.cif,1.397,2.103,mBJ,0.706,-0.1219,,Fm-3m
JVASP-12934,Li7Br3O2,FAILED_JVASP-12934.cif,4.804,5.765,mBJ,0.961,-1.83802,,I4/mmm
JVASP-78569,CaMg,FAILED_JVASP-78569.cif,0.0,0.0,mBJ,0.0,-0.11615,,P4/mmm
JVASP-79189,Mg3V,FAILED_JVASP-79189.cif,0.0,0.0,mBJ,0.0,0.32046,,Pmm2
JVASP-10487,Li4NpO5,FAILED_JVASP-10487.cif,0.67,2.38,mBJ,1.71,-2.67955,,I4/m
JVASP-57149,CaCl2O4,FAILED_JVASP-57149.cif,2.669,4.114,mBJ,1.445,-0.9444,,Ccce
JVASP-78784,Br,FAILED_JVASP-78784.cif,0.0,0.0,mBJ,0.0,0.52654,,Fm-3m
JVASP-78819,K2S,FAILED_JVASP-78819.cif,2.384,4.997,mBJ,2.613,-1.22235,,Fm-3m
JVASP-34284,Na4CO4,FAILED_JVASP-34284.cif,2.499,4.348,mBJ,1.849,-1.55365,,R3m
JVASP-10901,CaTi4S8,FAILED_JVASP-10901.cif,0.0,0.0,mBJ,0.0,-1.57286,,R-3m
JVASP-79142,Mn2Au,FAILED_JVASP-79142.cif,0.0,0.0,mBJ,0.0,0.23037,,I4/mmm
JVASP-78507,Rb2Pd,FAILED_JVASP-78507.cif,0.978,0.974,mBJ,-0.004,-0.0001,,Fm-3m
JVASP-79191,InCu,FAILED_JVASP-79191.cif,0.0,0.0,mBJ,0.0,0.03198,,P6_3/mmc
JVASP-10489,Li4TiO4,FAILED_JVASP-10489.cif,4.516,4.91,mBJ,0.394,-2.60727,,Cmcm
JVASP-34285,Rb4CO4,FAILED_JVASP-34285.cif,2.512,4.861,mBJ,2.349,-1.37543,,P-42m
JVASP-78634,NaCN,FAILED_JVASP-78634.cif,5.628,7.304,mBJ,1.676,-0.31494,,Imm2
JVASP-1076,Mg2Si,FAILED_JVASP-1076.cif,0.381,0.625,mBJ,0.244,-0.21351,,Fm-3m
JVASP-13734,YbCuSb,FAILED_JVASP-13734.cif,0.0,0.232,mBJ,0.232,-0.77949,,P6_3mc
JVASP-79192,Sc2MnSn,FAILED_JVASP-79192.cif,0.0,0.0,mBJ,0.0,-0.20973,,Fm-3m
JVASP-78821,TaS2,FAILED_JVASP-78821.cif,0.0,0.465,mBJ,0.465,-1.1436,,R3m
JVASP-79248,CaO,FAILED_JVASP-79248.cif,3.359,5.678,mBJ,2.319,-3.16285,,P6_3/mmc
JVASP-79016,Mn3Al,FAILED_JVASP-79016.cif,0.0,0.0,mBJ,0.0,-0.0369,,Fm-3m
JVASP-11523,SbF4,FAILED_JVASP-11523.cif,2.438,3.117,mBJ,0.679,-2.22985,,C2
JVASP-24596,RbCoCl3,FAILED_JVASP-24596.cif,0.0,0.0,mBJ,0.0,-1.23666,,P6_3/mmc
JVASP-55570,NaSbO3,FAILED_JVASP-55570.cif,1.454,2.211,mBJ,0.757,-1.69612,,Pnma
JVASP-34229,K4CO4,FAILED_JVASP-34229.cif,3.205,6.265,mBJ,3.06,-1.51255,,I-42m
JVASP-79079,NpSb3,FAILED_JVASP-79079.cif,0.0,0.0,mBJ,0.0,-0.20424,,I4/mmm
JVASP-9706,In2Ge2O7,FAILED_JVASP-9706.cif,1.975,3.913,mBJ,1.938,-1.72624,,C2/m
JVASP-12417,BaPbO3,FAILED_JVASP-12417.cif,0.219,0.278,mBJ,0.059,-1.88941,,Imma
JVASP-78825,Ca2Rh,FAILED_JVASP-78825.cif,0.0,0.07,mBJ,0.07,-0.36558,,Fm-3m
JVASP-78480,AgB2,FAILED_JVASP-78480.cif,0.0,0.0,mBJ,0.0,0.48565,,P6/mmm
JVASP-57499,SiO2,FAILED_JVASP-57499.cif,4.37,6.999,mBJ,2.629,-2.66937,,R-3
JVASP-78715,Tl,FAILED_JVASP-78715.cif,0.0,0.816,mBJ,0.816,0.019,,I4/mmm
JVASP-11201,Tm2CdSe4,FAILED_JVASP-11201.cif,0.668,1.643,mBJ,0.975,-1.54787,,Fd-3m
JVASP-11525,ReSbO6,FAILED_JVASP-11525.cif,1.727,2.102,mBJ,0.375,-1.45348,,P2_1/m
JVASP-79080,CdInRh2,FAILED_JVASP-79080.cif,0.0,0.0,mBJ,0.0,-0.27827,,Fm-3m
JVASP-79193,Ti2InCo,FAILED_JVASP-79193.cif,0.0,0.0,mBJ,0.0,-0.01454,,Fm-3m
JVASP-78571,As,FAILED_JVASP-78571.cif,0.0,0.0,mBJ,0.0,0.57387,,R-3m
JVASP-10693,K3SbO4,FAILED_JVASP-10693.cif,2.069,3.642,mBJ,1.573,-1.72935,,P2/c
JVASP-55591,InPO4,FAILED_JVASP-55591.cif,3.062,5.069,mBJ,2.007,-2.10311,,Pnma
JVASP-78638,VNiSb,FAILED_JVASP-78638.cif,0.0,0.0,mBJ,0.0,-0.08516,,F-43m
JVASP-79252,CrS,FAILED_JVASP-79252.cif,0.0,0.0,mBJ,0.0,-0.52662,,P6_3/mmc
JVASP-78827,HgBrN,FAILED_JVASP-78827.cif,0.0,0.0,mBJ,0.0,1.05618,,Pmm2
JVASP-78963,LiMg2,FAILED_JVASP-78963.cif,0.0,0.0,mBJ,0.0,-0.0635,,I4/mmm
JVASP-78858,NiS2,FAILED_JVASP-78858.cif,0.0,0.0,mBJ,0.0,0.23255,,I4/mmm
JVASP-78509,TiAu2,FAILED_JVASP-78509.cif,0.0,0.0,mBJ,0.0,-0.45569,,I4/mmm
JVASP-76777,Li2HgAs,FAILED_JVASP-76777.cif,0.0,0.0,mBJ,0.0,0.04151,,Immm
JVASP-34231,ScBiO3,FAILED_JVASP-34231.cif,0.926,1.584,mBJ,0.658,-2.26799,,Pm-3m
JVASP-34289,TiO2,FAILED_JVASP-34289.cif,3.483,3.828,mBJ,0.345,-3.10242,,P3_121
JVASP-9784,Cd2GaAgS4,FAILED_JVASP-9784.cif,0.995,2.442,mBJ,1.447,-0.60957,,Pmn2_1
JVASP-12935,KNaSe,FAILED_JVASP-12935.cif,2.292,4.534,mBJ,2.242,-1.22297,,Pnma
JVASP-11013,CaTi2O5,FAILED_JVASP-11013.cif,2.944,3.455,mBJ,0.511,-3.32993,,Pmmn
JVASP-10143,NbNO,FAILED_JVASP-10143.cif,1.608,2.113,mBJ,0.505,-1.82919,,P2_1/c
JVASP-36350,OsC,FAILED_JVASP-36350.cif,0.191,0.34,mBJ,0.149,0.67069,,F-43m
JVASP-10360,Sb2O5,FAILED_JVASP-10360.cif,0.467,1.366,mBJ,0.899,-1.2716,,Cmcm
JVASP-34234,Rb4CO4,FAILED_JVASP-34234.cif,2.514,4.862,mBJ,2.348,-1.3755,,P-43m
JVASP-12631,CdFe2O4,FAILED_JVASP-12631.cif,0.0,0.0,mBJ,0.0,-1.27914,,Fd-3m
JVASP-11307,MgMoF5,FAILED_JVASP-11307.cif,0.96,3.644,mBJ,2.684,-2.87991,,C2/c
JVASP-36175,Cr3Fe,FAILED_JVASP-36175.cif,0.0,0.0,mBJ,0.0,0.10635,,Fm-3m
JVASP-51002,MoH2O4,FAILED_JVASP-51002.cif,3.042,3.608,mBJ,0.566,-1.61066,,P-1
JVASP-78966,PuO2,FAILED_JVASP-78966.cif,0.0,0.0,mBJ,0.0,-3.55234,,Fm-3m
JVASP-78482,TiPd2,FAILED_JVASP-78482.cif,0.0,0.0,mBJ,0.0,-0.63893,,Immm
JVASP-12633,KFeS2O8,FAILED_JVASP-12633.cif,0.0,0.0,mBJ,0.0,-1.49816,,C2/m
JVASP-57541,LiBiPd2O4,FAILED_JVASP-57541.cif,0.857,1.042,mBJ,0.185,-1.18986,,P4/nmm
JVASP-78644,MnCoSb,FAILED_JVASP-78644.cif,0.0,0.0,mBJ,0.0,-0.03901,,F-43m
JVASP-79029,Rb3Al,FAILED_JVASP-79029.cif,0.0,0.0,mBJ,0.0,0.21124,,Fm-3m
JVASP-50425,Er3TaO7,FAILED_JVASP-50425.cif,3.551,4.675,mBJ,1.124,-3.69818,,P-1
JVASP-34579,Rb2NaNiF6,FAILED_JVASP-34579.cif,0.0,0.513,mBJ,0.513,-2.5671,,Fm-3m
JVASP-79259,CaAlSiH,FAILED_JVASP-79259.cif,0.546,0.799,mBJ,0.253,-0.4837,,P3m1
JVASP-58260,SiO2,FAILED_JVASP-58260.cif,5.672,8.482,mBJ,2.81,-2.88415,,P6_422
JVASP-30571,V2O5,FAILED_JVASP-30571.cif,1.642,2.007,mBJ,0.365,-2.39203,,Pmmn
JVASP-10490,TiO2,FAILED_JVASP-10490.cif,2.524,2.985,mBJ,0.461,-3.19167,,Pnma
JVASP-10694,RbAuO,FAILED_JVASP-10694.cif,1.554,2.427,mBJ,0.873,-0.97426,,I4/mmm
JVASP-10556,HfGeO4,FAILED_JVASP-10556.cif,4.171,6.252,mBJ,2.081,-2.80244,,I4_1/a
JVASP-50673,Yb2K2O3,FAILED_JVASP-50673.cif,2.554,5.37,mBJ,2.816,-2.46824,,P2_1/c
JVASP-34584,SiO2,FAILED_JVASP-34584.cif,2.859,4.979,mBJ,2.12,-2.49762,,P2
JVASP-58362,NdAl3B4O12,FAILED_JVASP-58362.cif,5.39,6.915,mBJ,1.525,-3.05621,,R32
JVASP-50919,SrAs2O6,FAILED_JVASP-50919.cif,3.446,4.741,mBJ,1.295,-1.87199,,P-31m
JVASP-34290,Zr2SN2,FAILED_JVASP-34290.cif,0.861,1.229,mBJ,0.368,-1.90078,,P-3m1
JVASP-36395,Ca2Ge,FAILED_JVASP-36395.cif,0.674,1.056,mBJ,0.382,-0.69842,,Fm-3m
JVASP-11152,PdF4,FAILED_JVASP-11152.cif,0.768,0.916,mBJ,0.148,-1.25293,,Fdd2
JVASP-11202,K5CuAs2,FAILED_JVASP-11202.cif,0.383,1.515,mBJ,1.132,-0.44448,,P6_3/mmc
JVASP-78513,MgF2,FAILED_JVASP-78513.cif,6.174,9.471,mBJ,3.297,-3.51408,,Amm2
JVASP-36305,BeSnAs2,FAILED_JVASP-36305.cif,0.673,1.261,mBJ,0.588,-0.2034,,I-42d
JVASP-34586,ZnS,FAILED_JVASP-34586.cif,2.096,3.596,mBJ,1.5,-0.88604,,P3m1
JVASP-35966,LuTlSe2,FAILED_JVASP-35966.cif,1.134,1.756,mBJ,0.622,-1.41672,,R-3m
JVASP-9785,KVCu2S4,FAILED_JVASP-9785.cif,1.069,1.003,mBJ,-0.066,-0.89895,,Ama2
JVASP-11527,Ca2Sn3O8,FAILED_JVASP-11527.cif,2.597,4.319,mBJ,1.722,-2.29303,,C2/m
JVASP-12936,NaLiSe,FAILED_JVASP-12936.cif,2.75,4.124,mBJ,1.374,-1.26927,,Pnma
JVASP-9707,AgCO2,FAILED_JVASP-9707.cif,2.248,2.693,mBJ,0.445,-0.8115,,P2_1/c
JVASP-12421,Rb3InS3,FAILED_JVASP-12421.cif,2.296,4.032,mBJ,1.736,-1.17882,,C2/m
JVASP-36015,HfC,FAILED_JVASP-36015.cif,0.375,1.121,mBJ,0.746,-0.41096,,F-43m
JVASP-30515,KAgO2,FAILED_JVASP-30515.cif,1.035,1.446,mBJ,0.411,-0.83336,,Cmcm
JVASP-36262,MgH2,FAILED_JVASP-36262.cif,0.0,1.439,mBJ,1.439,-0.17341,,Fm-3m
JVASP-51003,MoH2O4,FAILED_JVASP-51003.cif,2.472,3.018,mBJ,0.546,-1.57987,,P1
JVASP-49917,TiO2,FAILED_JVASP-49917.cif,2.141,2.467,mBJ,0.326,-3.21357,,Pnma
JVASP-24597,H3OF,FAILED_JVASP-24597.cif,6.943,10.354,mBJ,3.411,-1.27893,,Pnma
JVASP-9421,YSF,FAILED_JVASP-9421.cif,2.575,3.535,mBJ,0.96,-3.17996,,P6_3/mmc
JVASP-78868,AlAgS2,FAILED_JVASP-78868.cif,1.68,2.771,mBJ,1.091,-0.79084,,R3m
JVASP-55597,InAgP2S6,FAILED_JVASP-55597.cif,0.979,1.944,mBJ,0.965,-0.35684,,P-31c
JVASP-78651,HgO,FAILED_JVASP-78651.cif,0.0,0.0,mBJ,0.0,-0.1152,,Fm-3m
JVASP-49180,Ca2Sb2O7,FAILED_JVASP-49180.cif,0.262,1.581,mBJ,1.319,-1.88699,,Fd-3m
JVASP-36306,BeSiP2,FAILED_JVASP-36306.cif,1.325,1.937,mBJ,0.612,-0.4444,,I-42d
JVASP-10144,NbGaO4,FAILED_JVASP-10144.cif,3.406,3.981,mBJ,0.575,-2.4134,,C2/m
JVASP-79086,NpH3,FAILED_JVASP-79086.cif,0.0,0.0,mBJ,0.0,-0.33604,,I4/mmm
JVASP-57241,V2CdO6,FAILED_JVASP-57241.cif,2.122,2.341,mBJ,0.219,-2.2261,,C2/m
JVASP-79297,TaTcPb2,FAILED_JVASP-79297.cif,0.0,0.0,mBJ,0.0,0.52138,,R3m
JVASP-13413,ThTa2O7,FAILED_JVASP-13413.cif,2.758,3.865,mBJ,1.107,-3.39428,,C2/m
JVASP-78655,CoO,FAILED_JVASP-78655.cif,0.0,0.0,mBJ,0.0,-0.79117,,F-43m
JVASP-9422,ErAl8Fe4,FAILED_JVASP-9422.cif,0.0,0.0,mBJ,0.0,-0.44269,,I4/mmm
JVASP-78516,CoO2,FAILED_JVASP-78516.cif,0.0,0.0,mBJ,0.0,-0.97527,,R-3m
JVASP-51427,NaY2In,FAILED_JVASP-51427.cif,0.0,0.0,mBJ,0.0,-0.1808,,Fm-3m
JVASP-9709,KAuF4,FAILED_JVASP-9709.cif,2.347,2.531,mBJ,0.184,-1.88232,,I4/mcm
JVASP-57096,BiAsO4,FAILED_JVASP-57096.cif,3.19,4.251,mBJ,1.061,-1.42153,,I4_1/a
JVASP-79088,TbAgHg2,FAILED_JVASP-79088.cif,0.0,0.0,mBJ,0.0,-0.24613,,Fm-3m