material_id,formula,cif_path,pbe_bandgap,hse_bandgap,gap_type,correction,formation_energy,total_energy,spacegroup
JVASP-36361,CrFeTe,FAILED_JVASP-36361.cif,0.0,0.0,mBJ,0.0,0.16208,,F-43m
JVASP-11311,CaVF5,FAILED_JVASP-11311.cif,0.0,0.0,mBJ,0.0,-3.47993,,C2/c
JVASP-35970,LiZrSe2,FAILED_JVASP-35970.cif,0.0,0.598,mBJ,0.598,-1.43483,,P-3m1
JVASP-34250,K4CO4,FAILED_JVASP-34250.cif,1.951,5.53,mBJ,3.579,-1.45838,,Cm
JVASP-36311,MgO,FAILED_JVASP-36311.cif,2.994,4.733,mBJ,1.739,-2.22857,,Pm-3m
JVASP-57020,TbCl3,FAILED_JVASP-57020.cif,4.254,5.44,mBJ,1.186,-2.371,,P6_3/m
JVASP-85133,EuS,FAILED_JVASP-85133.cif,0.0,0.822,mBJ,0.822,-1.86879,,Pm-3m
JVASP-49183,Cd3TeO6,FAILED_JVASP-49183.cif,0.683,2.285,mBJ,1.602,-1.22399,,P2_1/c
JVASP-85134,EuTlS2,FAILED_JVASP-85134.cif,2.024,2.544,mBJ,0.52,-1.61092,,R-3m
JVASP-9791,Ba2YRuO6,FAILED_JVASP-9791.cif,0.099,0.0,mBJ,-0.099,-2.71114,,Fm-3m
JVASP-35971,LuCuS2,FAILED_JVASP-35971.cif,1.537,1.873,mBJ,0.336,-1.48757,,P3m1
JVASP-59891,MgTi2S4,FAILED_JVASP-59891.cif,0.0,0.0,mBJ,0.0,-1.49125,,Imma
JVASP-10702,Ba2PrSbO6,FAILED_JVASP-10702.cif,4.051,5.046,mBJ,0.995,-2.79231,,Fm-3m
JVASP-42715,Li2VOF3,FAILED_JVASP-42715.cif,0.099,0.0,mBJ,-0.099,-2.8872,,Pc
JVASP-36139,TlP,FAILED_JVASP-36139.cif,0.0,0.0,mBJ,0.0,0.24659,,F-43m
JVASP-9177,CuP2,FAILED_JVASP-9177.cif,0.941,1.225,mBJ,0.284,-0.12391,,P2_1/c
JVASP-80732,NaFeO2,FAILED_JVASP-80732.cif,0.0,0.008,mBJ,0.008,-1.59188,,R-3m
JVASP-79628,YbLiS2,FAILED_JVASP-79628.cif,0.0,0.0,mBJ,0.0,-1.51116,,R-3m
JVASP-85135,NaEuS2,FAILED_JVASP-85135.cif,2.279,3.37,mBJ,1.091,-1.99189,,R-3m
JVASP-12099,ScI3O9,FAILED_JVASP-12099.cif,3.772,4.941,mBJ,1.169,-1.05148,,R-3
JVASP-9952,CrO2,FAILED_JVASP-9952.cif,0.0,0.0,mBJ,0.0,-1.91402,,Cmcm
JVASP-50678,SbOF3,FAILED_JVASP-50678.cif,1.81,3.363,mBJ,1.553,-1.94292,,P4_2/mnm
JVASP-36447,Ba3N2,FAILED_JVASP-36447.cif,0.0,0.734,mBJ,0.734,0.07841,,Pm-3m
JVASP-30621,TeO3,FAILED_JVASP-30621.cif,0.187,0.887,mBJ,0.7,-0.16347,,P6_3cm
JVASP-49184,Ca3UO6,FAILED_JVASP-49184.cif,2.364,2.606,mBJ,0.242,-3.44654,,R-3
JVASP-79510,Ca,FAILED_JVASP-79510.cif,0.0,0.0,mBJ,0.0,0.00617,,P6_3/mmc
JVASP-79983,MgRh3,FAILED_JVASP-79983.cif,0.0,0.0,mBJ,0.0,-0.28696,,Imm2
JVASP-34336,NaSO4,FAILED_JVASP-34336.cif,3.64,4.7,mBJ,1.06,-1.48728,,P-1
JVASP-11593,CaV4O10,FAILED_JVASP-11593.cif,0.0,0.0,mBJ,0.0,-2.62698,,Pmm2
JVASP-10150,KSO4,FAILED_JVASP-10150.cif,3.624,4.601,mBJ,0.977,-1.54475,,P-1
JVASP-79802,AgI,FAILED_JVASP-79802.cif,0.678,2.2,mBJ,1.522,-0.19087,,Fm-3m
JVASP-36400,RuN,FAILED_JVASP-36400.cif,0.0,0.0,mBJ,0.0,0.15394,,F-43m
JVASP-79594,YAu,FAILED_JVASP-79594.cif,0.0,0.0,mBJ,0.0,-0.97298,,Cmcm
JVASP-9159,Ga2S3,FAILED_JVASP-9159.cif,1.677,3.244,mBJ,1.567,-0.73019,,Cc
JVASP-4391,TeO2,FAILED_JVASP-4391.cif,0.092,0.599,mBJ,0.507,-0.91391,,P4_2/mnm
JVASP-49185,K2Na4Be2O5,FAILED_JVASP-49185.cif,2.77,5.726,mBJ,2.956,-1.98156,,P4_2/mnm
JVASP-10151,LuAsO4,FAILED_JVASP-10151.cif,3.763,5.377,mBJ,1.614,-2.54545,,I4_1/amd
JVASP-36589,MgGeO3,FAILED_JVASP-36589.cif,1.135,4.598,mBJ,3.463,-1.80817,,Pm-3m
JVASP-85149,Eu2O3,FAILED_JVASP-85149.cif,4.072,5.432,mBJ,1.36,-3.71435,,P-3m1
JVASP-36362,CrCoTe,FAILED_JVASP-36362.cif,0.0,0.0,mBJ,0.0,0.13824,,F-43m
JVASP-51430,AlF3,FAILED_JVASP-51430.cif,7.716,11.141,mBJ,3.425,-3.68831,,P-1
JVASP-11534,ZnNi2O4,FAILED_JVASP-11534.cif,0.0,0.0,mBJ,0.0,-1.13224,,Fd-3m
JVASP-79227,AlAgO2,FAILED_JVASP-79227.cif,1.237,2.265,mBJ,1.028,-2.10692,,R3m
JVASP-85153,KEuS2,FAILED_JVASP-85153.cif,2.339,3.277,mBJ,0.938,-2.05323,,R-3m
JVASP-80100,Mn2VGa,FAILED_JVASP-80100.cif,0.0,0.0,mBJ,0.0,-0.19639,,Fm-3m
JVASP-35972,LiSnS2,FAILED_JVASP-35972.cif,0.0,0.787,mBJ,0.787,-0.83575,,R-3m
JVASP-29794,AlH3O3,FAILED_JVASP-29794.cif,5.326,7.338,mBJ,2.012,-1.83755,,P1
JVASP-36626,CdGeO3,FAILED_JVASP-36626.cif,0.0,2.431,mBJ,2.431,-1.3002,,Pm-3m
JVASP-36025,TcB,FAILED_JVASP-36025.cif,0.0,0.0,mBJ,0.0,-0.26208,,P-6m2
JVASP-50193,LiYS2,FAILED_JVASP-50193.cif,0.395,0.791,mBJ,0.396,-1.9636,,P4/mmm
JVASP-11596,AlMo4S8,FAILED_JVASP-11596.cif,0.0,0.0,mBJ,0.0,-0.96649,,F-43m
JVASP-80040,GaNiRh2,FAILED_JVASP-80040.cif,0.0,0.0,mBJ,0.0,-0.30454,,Fm-3m
JVASP-50029,Na2O,FAILED_JVASP-50029.cif,1.212,3.622,mBJ,2.41,-1.35143,,Pnnm
JVASP-49190,SbAsO5,FAILED_JVASP-49190.cif,1.956,3.327,mBJ,1.371,-1.27468,,P2_12_12_1
JVASP-36313,MgO,FAILED_JVASP-36313.cif,3.647,5.678,mBJ,2.031,-2.65054,,P-6m2
JVASP-36531,HfZnN2,FAILED_JVASP-36531.cif,2.361,3.241,mBJ,0.88,-1.14857,,P3m1
JVASP-36140,TlN,FAILED_JVASP-36140.cif,0.0,0.0,mBJ,0.0,0.87502,,F-43m
JVASP-79886,Pm2RuRh,FAILED_JVASP-79886.cif,0.0,0.0,mBJ,0.0,-0.46498,,Fm-3m
JVASP-80740,Ti2GaFe,FAILED_JVASP-80740.cif,0.0,0.298,mBJ,0.298,-0.24579,,F-43m
JVASP-30365,FeHO2,FAILED_JVASP-30365.cif,0.1,0.076,mBJ,-0.024,-1.13106,,P3m1
JVASP-36182,BW,FAILED_JVASP-36182.cif,0.0,0.0,mBJ,0.0,-0.56959,,Cmcm
JVASP-1100,Sb2Se3,FAILED_JVASP-1100.cif,0.875,1.454,mBJ,0.579,-0.26843,,Pnma
JVASP-28972,MoWSe2S2,FAILED_JVASP-28972.cif,0.642,0.61,mBJ,-0.032,-0.73578,,Cm
JVASP-79633,CaW,FAILED_JVASP-79633.cif,0.0,0.0,mBJ,0.0,0.55005,,Fd-3m
JVASP-9425,MgSb2O6,FAILED_JVASP-9425.cif,1.233,2.184,mBJ,0.951,-1.91437,,P4_2/mnm
JVASP-79453,HoAu,FAILED_JVASP-79453.cif,0.0,0.0,mBJ,0.0,-0.96109,,Cmcm
JVASP-9792,CaTiSiO5,FAILED_JVASP-9792.cif,2.952,3.233,mBJ,0.281,-3.25974,,C2/c
JVASP-36270,CuN,FAILED_JVASP-36270.cif,0.0,0.0,mBJ,0.0,0.90893,,Fm-3m
JVASP-11597,Al5CuS8,FAILED_JVASP-11597.cif,1.585,1.82,mBJ,0.235,-1.16023,,F-43m
JVASP-49192,Pr2Be2GeO7,FAILED_JVASP-49192.cif,4.382,6.278,mBJ,1.896,-3.04282,,P-42_1m
JVASP-36026,RuN,FAILED_JVASP-36026.cif,0.0,0.0,mBJ,0.0,0.77802,,P-6m2
JVASP-10152,K3SiTe3,FAILED_JVASP-10152.cif,1.793,2.606,mBJ,0.813,-0.87525,,C2/m
JVASP-79942,LuTlRh2,FAILED_JVASP-79942.cif,0.0,0.0,mBJ,0.0,-0.60211,,Fm-3m
JVASP-11598,Al5CuSe8,FAILED_JVASP-11598.cif,0.735,1.062,mBJ,0.327,-0.83512,,F-43m
JVASP-10889,Te2O5,FAILED_JVASP-10889.cif,1.847,2.743,mBJ,0.896,-0.98864,,P2_1
JVASP-36363,PdN,FAILED_JVASP-36363.cif,0.0,0.0,mBJ,0.0,1.40399,,Pm-3m
JVASP-36401,RuC,FAILED_JVASP-36401.cif,0.0,0.0,mBJ,0.0,0.8615,,Fm-3m
JVASP-49193,Sm2Be2GeO7,FAILED_JVASP-49193.cif,4.564,6.396,mBJ,1.832,-3.08056,,P-42_1m
JVASP-79892,PaGaAu2,FAILED_JVASP-79892.cif,0.0,0.0,mBJ,0.0,-0.43917,,Fm-3m
JVASP-80105,U3Cl,FAILED_JVASP-80105.cif,0.0,0.0,mBJ,0.0,0.19145,,I4/mmm
JVASP-79718,Li2SnBi,FAILED_JVASP-79718.cif,0.0,0.0,mBJ,0.0,-0.01111,,I4/mmm
JVASP-50197,GaBiO3,FAILED_JVASP-50197.cif,3.181,4.231,mBJ,1.05,-1.66543,,R3c
JVASP-34340,CaF2,FAILED_JVASP-34340.cif,5.251,7.102,mBJ,1.851,-3.92647,,P4/mmm
JVASP-53640,YCuSe2,FAILED_JVASP-53640.cif,1.207,1.328,mBJ,0.121,-1.28044,,P3m1
JVASP-79459,AlCo2Si,FAILED_JVASP-79459.cif,0.0,0.0,mBJ,0.0,0.46426,,Immm
JVASP-24614,XeIF7,FAILED_JVASP-24614.cif,2.832,4.794,mBJ,1.962,-1.2902,,I4/m
JVASP-11314,CaFeF4,FAILED_JVASP-11314.cif,0.03,0.0,mBJ,-0.03,-3.0526,,Ima2
JVASP-1115,PbSe,FAILED_JVASP-1115.cif,0.513,0.962,mBJ,0.449,-0.59492,,Fm-3m
JVASP-22539,K2MgF4,FAILED_JVASP-22539.cif,6.957,10.55,mBJ,3.593,-3.36098,,I4/mmm
JVASP-36229,ThH2,FAILED_JVASP-36229.cif,0.0,0.0,mBJ,0.0,-0.51123,,Fm-3m
JVASP-79946,V2CrFe,FAILED_JVASP-79946.cif,0.0,0.0,mBJ,0.0,-0.18626,,Fm-3m
JVASP-36314,MnN,FAILED_JVASP-36314.cif,0.059,0.0,mBJ,-0.059,-0.43985,,F-43m
JVASP-79816,FeS,FAILED_JVASP-79816.cif,0.0,0.0,mBJ,0.0,-0.34989,,P6_3/mmc
JVASP-36448,Sr3N2,FAILED_JVASP-36448.cif,0.0,1.158,mBJ,1.158,-0.1823,,Pm-3m
JVASP-36488,Sr3Bi2,FAILED_JVASP-36488.cif,0.0,0.0,mBJ,0.0,-0.55228,,Pm-3m
JVASP-36364,PdN,FAILED_JVASP-36364.cif,0.0,0.0,mBJ,0.0,1.21024,,P-6m2
JVASP-12977,PdPb2Br6,FAILED_JVASP-12977.cif,1.138,1.067,mBJ,-0.071,-0.74389,,P2_1/c
JVASP-33896,InGeCl3,FAILED_JVASP-33896.cif,1.924,2.125,mBJ,0.201,-0.86145,,R3m
JVASP-10153,K2S3,FAILED_JVASP-10153.cif,1.342,2.596,mBJ,1.254,-0.94281,,Cmc2_1
JVASP-12427,In2HgS4,FAILED_JVASP-12427.cif,0.289,1.492,mBJ,1.203,-0.46858,,Fd-3m
JVASP-10171,ZnBi2O4,FAILED_JVASP-10171.cif,1.714,3.259,mBJ,1.545,-1.3635,,C2/c
JVASP-9793,CdCu2SiS4,FAILED_JVASP-9793.cif,1.04,1.831,mBJ,0.791,-0.56881,,Pmn2_1
JVASP-11204,ZnSnO3,FAILED_JVASP-11204.cif,1.539,3.05,mBJ,1.511,-1.65923,,R-3
JVASP-36272,DySb,FAILED_JVASP-36272.cif,0.0,0.0,mBJ,0.0,-0.80963,,Pm-3m
JVASP-57774,HoAlO3,FAILED_JVASP-57774.cif,5.981,7.375,mBJ,1.394,-3.64118,,Pnma
JVASP-80107,CrInCo2,FAILED_JVASP-80107.cif,0.0,0.0,mBJ,0.0,0.22287,,Fm-3m
JVASP-36027,SiC,FAILED_JVASP-36027.cif,0.0,0.0,mBJ,0.0,0.58632,,Fm-3m
JVASP-80243,Rb2AuI,FAILED_JVASP-80243.cif,3.273,4.538,mBJ,1.265,-0.3582,,Immm
JVASP-24616,SrBe3O4,FAILED_JVASP-24616.cif,4.268,6.707,mBJ,2.439,-3.02935,,P-62c
JVASP-36230,CeTe,FAILED_JVASP-36230.cif,0.0,0.0,mBJ,0.0,-1.26623,,Pm-3m
JVASP-79463,Sc2MnSn,FAILED_JVASP-79463.cif,0.0,0.0,mBJ,0.0,-0.20936,,Fm-3m
JVASP-10704,K2SnAs2S6,FAILED_JVASP-10704.cif,1.063,1.952,mBJ,0.889,-0.69259,,P-3
JVASP-81757,Li2RhAu,FAILED_JVASP-81757.cif,0.0,0.0,mBJ,0.0,-0.06763,,Immm
JVASP-12978,Li10BrN3,FAILED_JVASP-12978.cif,1.712,2.508,mBJ,0.796,-0.70377,,P-6m2
JVASP-58373,NaAlF4,FAILED_JVASP-58373.cif,6.06,10.974,mBJ,4.914,-3.39989,,P4/mmm
JVASP-1124,Cu2Se,FAILED_JVASP-1124.cif,0.0,0.0,mBJ,0.0,0.02244,,Fm-3m
JVASP-34471,SrCuH6O5,FAILED_JVASP-34471.cif,0.762,2.165,mBJ,1.403,-1.31156,,P2/c
JVASP-79821,FeCuO2,FAILED_JVASP-79821.cif,0.0,0.0,mBJ,0.0,-1.10743,,R-3m
JVASP-59903,CaMn2S4,FAILED_JVASP-59903.cif,0.0,0.0,mBJ,0.0,-0.99664,,C2/c
JVASP-36590,CdIrO3,FAILED_JVASP-36590.cif,0.0,0.0,mBJ,0.0,-0.56211,,Pm-3m
JVASP-50030,CeOF,FAILED_JVASP-50030.cif,0.011,0.0,mBJ,-0.011,-3.9164,,P4/nmm
JVASP-49194,Er2Be2GeO7,FAILED_JVASP-49194.cif,4.587,6.481,mBJ,1.894,-3.11803,,P-42_1m
JVASP-10154,K2Se3,FAILED_JVASP-10154.cif,0.69,1.644,mBJ,0.954,-0.88474,,Cmc2_1
JVASP-82128,InCl,FAILED_JVASP-82128.cif,1.594,1.751,mBJ,0.157,-0.91729,,Cmcm
JVASP-79639,NiHO2,FAILED_JVASP-79639.cif,0.0,0.177,mBJ,0.177,-0.91821,,Cm
JVASP-85217,CeSmI4,FAILED_JVASP-85217.cif,0.0,0.0,mBJ,0.0,-1.21358,,P-1
JVASP-36365,PrN,FAILED_JVASP-36365.cif,1.765,3.084,mBJ,1.319,-1.31577,,F-43m
JVASP-34341,Mg2SiO4,FAILED_JVASP-34341.cif,4.654,6.556,mBJ,1.902,-2.81881,,P-3m1
JVASP-36627,VCdO3,FAILED_JVASP-36627.cif,0.0,1.708,mBJ,1.708,-1.89064,,Pm-3m
JVASP-9794,K2LiAlP2,FAILED_JVASP-9794.cif,2.071,2.877,mBJ,0.806,-0.77232,,Ibam
JVASP-10364,MgBi4O8,FAILED_JVASP-10364.cif,0.0,0.0,mBJ,0.0,-1.20242,,R-3m
JVASP-36402,RuC,FAILED_JVASP-36402.cif,0.661,0.682,mBJ,0.021,0.41724,,F-43m
JVASP-51010,CaH2O2,FAILED_JVASP-51010.cif,4.464,6.939,mBJ,2.475,-1.99349,,P-3m1
JVASP-82129,InP,FAILED_JVASP-82129.cif,0.375,1.426,mBJ,1.051,-0.21708,,P6_3mc
JVASP-9427,MgSiN2,FAILED_JVASP-9427.cif,4.46,5.408,mBJ,0.948,-1.33298,,Pna2_1
JVASP-59612,CeAlO3,FAILED_JVASP-59612.cif,0.0,0.0,mBJ,0.0,-3.49587,,Imma
JVASP-79608,K3Rh,FAILED_JVASP-79608.cif,0.0,0.0,mBJ,0.0,0.46279,,P-3m1
JVASP-5239,UCl6,FAILED_JVASP-5239.cif,1.447,1.551,mBJ,0.104,-1.52813,,P-3m1
JVASP-1103,TePb,FAILED_JVASP-1103.cif,1.119,1.405,mBJ,0.286,-0.41698,,Fm-3m
JVASP-11205,K2VAgSe4,FAILED_JVASP-11205.cif,1.058,1.141,mBJ,0.083,-0.90041,,Fddd
JVASP-50439,Al2HgO4,FAILED_JVASP-50439.cif,1.507,2.644,mBJ,1.137,-2.34016,,Fd-3m
JVASP-80112,AlCrFe2,FAILED_JVASP-80112.cif,0.0,0.0,mBJ,0.0,-0.19712,,Fm-3m
JVASP-36183,BiPd,FAILED_JVASP-36183.cif,0.0,0.0,mBJ,0.0,-0.29435,,P6_3/mmc
JVASP-9517,VPO5,FAILED_JVASP-9517.cif,1.588,1.936,mBJ,0.348,-2.33786,,Cc
JVASP-81671,Li2PtPb,FAILED_JVASP-81671.cif,0.0,0.0,mBJ,0.0,-0.09141,,Immm
JVASP-10659,Tm5Re2O12,FAILED_JVASP-10659.cif,0.0,0.351,mBJ,0.351,-3.18989,,C2/m
JVASP-80266,Li2CuAu,FAILED_JVASP-80266.cif,2.145,2.302,mBJ,0.157,0.77304,,Immm
JVASP-56040,TlSn2Br5,FAILED_JVASP-56040.cif,2.389,3.102,mBJ,0.713,-0.86396,,I4/mcm
JVASP-11321,ZnSbF5,FAILED_JVASP-11321.cif,4.122,6.156,mBJ,2.034,-2.36978,,P1
JVASP-85222,W2NCl8,FAILED_JVASP-85222.cif,0.156,2.081,mBJ,1.925,-0.95043,,P-1
JVASP-30623,FeO2,FAILED_JVASP-30623.cif,0.0,0.0,mBJ,0.0,-1.25617,,R-3m
JVASP-36141,HfIr,FAILED_JVASP-36141.cif,0.0,0.0,mBJ,0.0,-1.00513,,P2_1/m
JVASP-57777,KCaF3,FAILED_JVASP-57777.cif,6.537,10.159,mBJ,3.622,-3.64253,,Pm-3m
JVASP-34477,K2ThCu2S4,FAILED_JVASP-34477.cif,1.066,1.403,mBJ,0.337,-1.35532,,C2/m
JVASP-11020,CaV2O4,FAILED_JVASP-11020.cif,0.0,0.0,mBJ,0.0,-2.57251,,C2/m
JVASP-80115,MnCo3,FAILED_JVASP-80115.cif,0.0,0.0,mBJ,0.0,0.03415,,Pm-3m
JVASP-36273,LiFeP,FAILED_JVASP-36273.cif,0.0,0.0,mBJ,0.0,-0.36574,,I4mm
JVASP-12428,In2S3,FAILED_JVASP-12428.cif,0.264,1.476,mBJ,1.212,-0.60199,,R-3c
JVASP-36320,MnSn,FAILED_JVASP-36320.cif,0.0,0.0,mBJ,0.0,0.49854,,Pm-3m
JVASP-1109,SnS,FAILED_JVASP-1109.cif,1.018,1.474,mBJ,0.456,-0.5596,,Pnma
JVASP-52134,H2O,FAILED_JVASP-52134.cif,5.72,7.821,mBJ,2.101,-0.97597,,P4_2nm
JVASP-36366,PrN,FAILED_JVASP-36366.cif,0.0,0.0,mBJ,0.0,-0.75156,,Pm-3m
JVASP-57990,MgMn2S4,FAILED_JVASP-57990.cif,0.0,0.0,mBJ,0.0,-0.83016,,Fd-3m
JVASP-79648,YbCoC2,FAILED_JVASP-79648.cif,0.0,0.0,mBJ,0.0,-0.31621,,Amm2
JVASP-11206,Rb2VAgSe4,FAILED_JVASP-11206.cif,1.092,1.154,mBJ,0.062,-0.91584,,Fddd
JVASP-36629,TiZnO3,FAILED_JVASP-36629.cif,0.0,1.964,mBJ,1.964,-2.0624,,Pm-3m
JVASP-10531,Na3AgS2,FAILED_JVASP-10531.cif,2.301,3.464,mBJ,1.163,-0.97392,,Ibam
JVASP-11028,CaMn2O4,FAILED_JVASP-11028.cif,0.0,0.0,mBJ,0.0,-2.13022,,C2/m
JVASP-80116,VN,FAILED_JVASP-80116.cif,0.0,0.0,mBJ,0.0,-1.14574,,P4/nmm
JVASP-11207,Rb2NbAgS4,FAILED_JVASP-11207.cif,2.22,2.452,mBJ,0.232,-1.11575,,Fddd
JVASP-80118,MnFe2Si,FAILED_JVASP-80118.cif,0.0,0.0,mBJ,0.0,-0.27804,,Fm-3m
JVASP-9430,ScAl8Fe4,FAILED_JVASP-9430.cif,0.0,0.0,mBJ,0.0,-0.43912,,I4/mmm
JVASP-11031,CaFe2O4,FAILED_JVASP-11031.cif,0.0,0.0,mBJ,0.0,-1.85492,,Cm
JVASP-24624,Ag3P11,FAILED_JVASP-24624.cif,0.908,1.315,mBJ,0.407,-0.02047,,Cm
JVASP-81193,AlGaRu2,FAILED_JVASP-81193.cif,0.0,0.0,mBJ,0.0,0.45603,,Immm
JVASP-36489,Sr3SbP,FAILED_JVASP-36489.cif,0.493,1.272,mBJ,0.779,-1.01417,,Pm-3m
JVASP-36592,MgTiO3,FAILED_JVASP-36592.cif,1.934,2.552,mBJ,0.618,-2.72633,,Pm-3m
JVASP-9796,Ba3MgNb2O9,FAILED_JVASP-9796.cif,2.712,3.361,mBJ,0.649,-3.12405,,P-3m1
JVASP-36142,CoW,FAILED_JVASP-36142.cif,0.0,0.0,mBJ,0.0,0.04294,,Pm-3m
JVASP-50860,Tm2SeO2,FAILED_JVASP-50860.cif,2.298,3.686,mBJ,1.388,-3.35614,,P-3m1
JVASP-13805,AgTe6Mo6,FAILED_JVASP-13805.cif,0.0,0.0,mBJ,0.0,-0.18627,,C2/m
JVASP-22524,CaCl2,FAILED_JVASP-22524.cif,5.289,6.765,mBJ,1.476,-2.52378,,P4_2/mnm
JVASP-36449,Sr3BiP,FAILED_JVASP-36449.cif,0.0,0.037,mBJ,0.037,-0.21961,,Pm-3m
JVASP-36274,CrTe,FAILED_JVASP-36274.cif,0.0,0.0,mBJ,0.0,0.20145,,F-43m
JVASP-10156,DyTaO4,FAILED_JVASP-10156.cif,4.052,5.32,mBJ,1.268,-3.51809,,P2/c
JVASP-36033,ErH,FAILED_JVASP-36033.cif,0.0,0.0,mBJ,0.0,-0.36296,,Fm-3m
JVASP-58264,CaMn4Al8,FAILED_JVASP-58264.cif,0.0,0.0,mBJ,0.0,-0.27239,,I4/mmm
JVASP-43509,Sr2Ti6N2O11,FAILED_JVASP-43509.cif,1.824,2.17,mBJ,0.346,-3.00251,,Cm
JVASP-12429,Li2PbO3,FAILED_JVASP-12429.cif,1.122,2.097,mBJ,0.975,-1.60087,,C2/c
JVASP-28580,MoWSe2S2,FAILED_JVASP-28580.cif,0.572,0.673,mBJ,0.101,-0.7547,,P3m1
JVASP-85193,LaTeCl,FAILED_JVASP-85193.cif,0.659,1.158,mBJ,0.499,-2.09547,,P4/nmm
JVASP-36667,ZrN,FAILED_JVASP-36667.cif,0.0,0.0,mBJ,0.0,-1.59607,,P6_3/mmc
JVASP-11323,Ti3Zn2O8,FAILED_JVASP-11323.cif,2.22,2.698,mBJ,0.478,-2.70773,,C2/m
JVASP-24625,PICl6,FAILED_JVASP-24625.cif,1.981,2.845,mBJ,0.864,-0.47271,,P-42_1m
JVASP-57549,Co2P2O7,FAILED_JVASP-57549.cif,0.0,0.0,mBJ,0.0,-1.72086,,P-1
JVASP-50033,BaYCl5,FAILED_JVASP-50033.cif,4.12,4.836,mBJ,0.716,-2.44589,,C2/c
JVASP-36321,MnSb,FAILED_JVASP-36321.cif,0.0,0.0,mBJ,0.0,0.49753,,Pm-3m
JVASP-85231,CeNdI4,FAILED_JVASP-85231.cif,0.0,0.0,mBJ,0.0,-1.24117,,C2/c
JVASP-36405,TaC,FAILED_JVASP-36405.cif,0.0,0.0,mBJ,0.0,-0.23606,,P-6m2
JVASP-36034,TlN,FAILED_JVASP-36034.cif,0.0,0.0,mBJ,0.0,1.06201,,Fm-3m
JVASP-10157,ZnF2,FAILED_JVASP-10157.cif,3.77,6.535,mBJ,2.765,-2.43976,,Pbcn
JVASP-36491,Ca3AsP,FAILED_JVASP-36491.cif,0.358,1.051,mBJ,0.693,-0.95865,,Pm-3m
JVASP-36185,BiI3,FAILED_JVASP-36185.cif,0.0,0.132,mBJ,0.132,0.04886,,Fm-3m
JVASP-24626,NaHF2,FAILED_JVASP-24626.cif,7.136,12.067,mBJ,4.931,-2.32327,,R-3m
JVASP-36630,MgSiO3,FAILED_JVASP-36630.cif,2.921,5.604,mBJ,2.683,-2.555,,Pm-3m
JVASP-9432,CaGe2O5,FAILED_JVASP-9432.cif,2.618,4.351,mBJ,1.733,-2.2424,,C2/c
JVASP-36368,PtC,FAILED_JVASP-36368.cif,0.0,0.0,mBJ,0.0,1.53825,,P-6m2
JVASP-31661,CuAuSe4,FAILED_JVASP-31661.cif,0.0,0.02,mBJ,0.02,-0.08554,,P2_1/m
JVASP-30521,NiHO2,FAILED_JVASP-30521.cif,0.0,0.401,mBJ,0.401,-0.86619,,P3m1
JVASP-1145,KCl,FAILED_JVASP-1145.cif,5.326,8.409,mBJ,3.083,-2.08827,,Fm-3m
JVASP-85236,VINCl3,FAILED_JVASP-85236.cif,1.001,1.098,mBJ,0.097,-0.66592,,P-1
JVASP-4891,K2S5,FAILED_JVASP-4891.cif,1.641,2.63,mBJ,0.989,-0.70533,,P2_12_12_1
JVASP-34347,BaFeF4,FAILED_JVASP-34347.cif,0.0,0.0,mBJ,0.0,-3.04634,,Cmc2_1
JVASP-11324,Mg2Ti3O8,FAILED_JVASP-11324.cif,2.498,2.993,mBJ,0.495,-3.16076,,C2/m
JVASP-9717,Rb3TaO8,FAILED_JVASP-9717.cif,3.26,4.498,mBJ,1.238,-1.60478,,I-42m
JVASP-10158,Li4UO5,FAILED_JVASP-10158.cif,2.21,2.375,mBJ,0.165,-2.7559,,I4/m
JVASP-57099,Yb2PrDyS6,FAILED_JVASP-57099.cif,1.1,1.634,mBJ,0.534,-1.95499,,P2_1/m
JVASP-36322,MnSb,FAILED_JVASP-36322.cif,0.0,0.0,mBJ,0.0,0.50943,,F-43m
JVASP-9433,SrHfO3,FAILED_JVASP-9433.cif,4.171,5.717,mBJ,1.546,-3.66475,,I4/mcm
JVASP-24629,Hg3Te2Cl2,FAILED_JVASP-24629.cif,1.762,2.654,mBJ,0.892,-0.27155,,I2_13
JVASP-35688,VN,FAILED_JVASP-35688.cif,0.0,0.0,mBJ,0.0,-1.31677,,P-6m2
JVASP-36277,FeN,FAILED_JVASP-36277.cif,0.0,0.0,mBJ,0.0,0.09449,,Fm-3m
JVASP-52137,Nd2UTe4,FAILED_JVASP-52137.cif,0.0,0.0,mBJ,0.0,-1.16458,,I-42d
JVASP-28849,Te8MoW3,FAILED_JVASP-28849.cif,0.913,0.919,mBJ,0.006,-0.07028,,P3m1
JVASP-30522,MgTi4O9,FAILED_JVASP-30522.cif,2.37,2.79,mBJ,0.42,-3.07704,,P4/n
JVASP-22525,SrClF,FAILED_JVASP-22525.cif,5.95,7.911,mBJ,1.961,-3.46343,,P4/nmm
JVASP-30581,ZnCr2F12,FAILED_JVASP-30581.cif,0.0,0.0,mBJ,0.0,-2.32716,,P-1
JVASP-12435,Li8PbO6,FAILED_JVASP-12435.cif,2.414,3.463,mBJ,1.049,-1.89485,,R-3
JVASP-10367,MgSn4O8,FAILED_JVASP-10367.cif,0.614,1.547,mBJ,0.933,-1.68517,,R-3m
JVASP-10662,Na2PdS2,FAILED_JVASP-10662.cif,1.059,1.49,mBJ,0.431,-0.93567,,Cmc2_1
JVASP-22642,Cu2HgI4,FAILED_JVASP-22642.cif,0.37,0.601,mBJ,0.231,-0.16194,,P-42m
JVASP-10707,NaSr4B3N6,FAILED_JVASP-10707.cif,2.202,3.523,mBJ,1.321,-1.27377,,Im-3m
JVASP-9224,MgBi2O6,FAILED_JVASP-9224.cif,0.18,0.56,mBJ,0.38,-1.26617,,Pmn2_1
JVASP-9718,AgPS3,FAILED_JVASP-9718.cif,1.354,1.834,mBJ,0.48,-0.1874,,C2/m
JVASP-35975,LiScS2,FAILED_JVASP-35975.cif,1.477,2.032,mBJ,0.555,-1.94491,,R-3m
JVASP-1082,Mg2Sn,FAILED_JVASP-1082.cif,0.0,0.237,mBJ,0.237,-0.25673,,Fm-3m
JVASP-24630,Hg3Te2Br2,FAILED_JVASP-24630.cif,1.653,2.6,mBJ,0.947,-0.19261,,I2_13
JVASP-13988,Al2Cu,FAILED_JVASP-13988.cif,0.0,0.0,mBJ,0.0,-0.05967,,P4/mmm
JVASP-36278,ErSb,FAILED_JVASP-36278.cif,0.0,0.0,mBJ,0.0,-0.76513,,Pm-3m
JVASP-36450,Sr3BiN,FAILED_JVASP-36450.cif,0.0,0.0,mBJ,0.0,0.64398,,Pm-3m
JVASP-36369,PrN,FAILED_JVASP-36369.cif,0.176,0.234,mBJ,0.058,-1.13576,,P-6m2
JVASP-43512,LiVF4,FAILED_JVASP-43512.cif,0.0,0.0,mBJ,0.0,-3.04736,,Cmmm
JVASP-57507,InBi2S4Cl,FAILED_JVASP-57507.cif,1.575,2.336,mBJ,0.761,-0.62396,,C2/m
JVASP-9093,Rb2Te,FAILED_JVASP-9093.cif,1.882,3.157,mBJ,1.275,-1.0948,,Pnma
JVASP-36235,SrC2,FAILED_JVASP-36235.cif,1.861,2.913,mBJ,1.052,-0.03848,,R-3m
JVASP-57554,Na2AlZnF7,FAILED_JVASP-57554.cif,5.052,8.148,mBJ,3.096,-3.13146,,Imma
JVASP-36323,MnSb,FAILED_JVASP-36323.cif,0.0,0.022,mBJ,0.022,0.21713,,Fm-3m
JVASP-11431,BaCaSi,FAILED_JVASP-11431.cif,0.164,0.379,mBJ,0.215,-0.51001,,Pnma
JVASP-80479,Sr3Mg,FAILED_JVASP-80479.cif,0.0,0.0,mBJ,0.0,0.03798,,P-6m2
JVASP-9955,ZnMo2O4,FAILED_JVASP-9955.cif,0.0,0.0,mBJ,0.0,-1.71969,,Cmcm
JVASP-10663,Na2PtS2,FAILED_JVASP-10663.cif,1.27,1.833,mBJ,0.563,-0.95843,,Cmc2_1
JVASP-35689,TiS,FAILED_JVASP-35689.cif,0.0,0.0,mBJ,0.0,-1.57736,,P-6m2
JVASP-36668,CaBe2P2,FAILED_JVASP-36668.cif,0.844,1.216,mBJ,0.372,-0.8507,,P-3m1
JVASP-36632,ZnGeO3,FAILED_JVASP-36632.cif,0.0,2.421,mBJ,2.421,-1.13757,,Pm-3m
JVASP-36406,CN2,FAILED_JVASP-36406.cif,0.485,1.372,mBJ,0.887,0.9109,,I-4m2
JVASP-52138,CaUS2,FAILED_JVASP-52138.cif,0.0,0.0,mBJ,0.0,-1.29922,,I-42d
JVASP-81498,ScAgO2,FAILED_JVASP-81498.cif,1.947,3.059,mBJ,1.112,-2.37249,,R3m
JVASP-12437,KInP2S7,FAILED_JVASP-12437.cif,2.021,3.082,mBJ,1.061,-0.55415,,C2
JVASP-81987,H3S,FAILED_JVASP-81987.cif,0.0,0.0,mBJ,0.0,0.38617,,I4mm
JVASP-9178,ZrO2,FAILED_JVASP-9178.cif,2.972,3.557,mBJ,0.585,-3.6251,,Pnma