material_id,formula,cif_path,pbe_bandgap,hse_bandgap,gap_type,correction,formation_energy,total_energy,spacegroup
JVASP-50276,TbNbO4,FAILED_JVASP-50276.cif,3.944,4.729,mBJ,0.785,-3.20946,,I4_1/amd
JVASP-52866,B4C,FAILED_JVASP-52866.cif,1.66,2.16,mBJ,0.5,-0.05383,,R-3m
JVASP-8693,LiAuC2,FAILED_JVASP-8693.cif,1.561,2.104,mBJ,0.543,0.17036,,P-6m2
JVASP-5095,TbFeSi,FAILED_JVASP-5095.cif,0.0,0.0,mBJ,0.0,-0.62568,,P4/nmm
JVASP-19077,MgAl2S4,FAILED_JVASP-19077.cif,3.13,3.848,mBJ,0.718,-1.37345,,Pnma
JVASP-7727,LiCeSn,FAILED_JVASP-7727.cif,0.0,0.271,mBJ,0.271,-0.36582,,F-43m
JVASP-7993,AgN3,FAILED_JVASP-7993.cif,1.897,3.002,mBJ,1.105,0.59818,,Ibam
JVASP-13845,Cu2Te,FAILED_JVASP-13845.cif,0.0,0.0,mBJ,0.0,0.12454,,P6/mmm
JVASP-7781,ScTlTe2,FAILED_JVASP-7781.cif,0.068,0.235,mBJ,0.167,-0.96539,,R-3m
JVASP-7815,BeSiN2,FAILED_JVASP-7815.cif,3.837,5.168,mBJ,1.331,-1.37921,,I-42d
JVASP-9088,Ga2Se3,FAILED_JVASP-9088.cif,0.993,2.4,mBJ,1.407,-0.58258,,Cc
JVASP-8320,FeO2,FAILED_JVASP-8320.cif,0.0,0.0,mBJ,0.0,-1.17012,,R-3m
JVASP-19078,Ho2Sn2O7,FAILED_JVASP-19078.cif,2.888,4.384,mBJ,1.496,-2.7907,,Fd-3m
JVASP-8149,K3P,FAILED_JVASP-8149.cif,0.304,1.807,mBJ,1.503,-0.35255,,P6_3/mmc
JVASP-8107,TiCo3,FAILED_JVASP-8107.cif,0.0,0.0,mBJ,0.0,-0.29082,,Pm-3m
JVASP-51333,InCoSi2,FAILED_JVASP-51333.cif,0.0,0.0,mBJ,0.0,0.63088,,Fm-3m
JVASP-8728,TiSnPt,FAILED_JVASP-8728.cif,0.832,0.92,mBJ,0.088,-0.81484,,F-43m
JVASP-8321,CaFeWO6,FAILED_JVASP-8321.cif,0.0,0.0,mBJ,0.0,-2.14471,,F-43m
JVASP-51764,NaInH8N2F6,FAILED_JVASP-51764.cif,5.349,7.715,mBJ,2.366,-1.51235,,Fm-3m
JVASP-8063,TlSbTe2,FAILED_JVASP-8063.cif,0.177,0.424,mBJ,0.247,-0.23093,,R-3m
JVASP-8694,Rb2CdCl4,FAILED_JVASP-8694.cif,3.208,5.072,mBJ,1.864,-1.68483,,I4/mmm
JVASP-11168,SmNbO4,FAILED_JVASP-11168.cif,3.5,4.191,mBJ,0.691,-3.30143,,C2/c
JVASP-8765,Rb3Sb,FAILED_JVASP-8765.cif,0.707,1.398,mBJ,0.691,-0.46058,,Fm-3m
JVASP-8537,HfPbO3,FAILED_JVASP-8537.cif,2.539,3.581,mBJ,1.042,-2.76213,,Pm-3m
JVASP-8281,CaBiF6,FAILED_JVASP-8281.cif,0.0,2.181,mBJ,2.181,-2.83971,,R-3
JVASP-50278,Na2Be2O3,FAILED_JVASP-50278.cif,3.284,6.267,mBJ,2.983,-2.24526,,P2_1/c
JVASP-7905,Sc3InB,FAILED_JVASP-7905.cif,0.0,0.0,mBJ,0.0,-0.43137,,Pm-3m
JVASP-47778,Li2Ti3VO8,FAILED_JVASP-47778.cif,0.0,0.0,mBJ,0.0,-2.84839,,C2/m
JVASP-29588,MgCl2,FAILED_JVASP-29588.cif,3.71,6.03,mBJ,2.32,-1.76671,,Cmcm
JVASP-13896,RbMnP,FAILED_JVASP-13896.cif,0.0,0.0,mBJ,0.0,-0.43446,,P4/nmm
JVASP-7689,LiErO2,FAILED_JVASP-7689.cif,4.633,6.463,mBJ,1.83,-3.19907,,I4_1/amd
JVASP-8810,TiO2,FAILED_JVASP-8810.cif,2.024,2.475,mBJ,0.451,-3.24407,,I4_1/amd
JVASP-14274,Yb5Ge3,FAILED_JVASP-14274.cif,0.0,0.0,mBJ,0.0,-0.67084,,P6_3/mcm
JVASP-7783,Ca2GeO4,FAILED_JVASP-7783.cif,3.06,4.677,mBJ,1.617,-2.68953,,I4/mmm
JVASP-13297,TiFe4O8,FAILED_JVASP-13297.cif,0.0,0.0,mBJ,0.0,-1.77298,,C2/m
JVASP-52867,KPH2O4,FAILED_JVASP-52867.cif,5.998,8.89,mBJ,2.892,-1.88763,,I-42d
JVASP-7728,TiCuHg2,FAILED_JVASP-7728.cif,0.0,0.0,mBJ,0.0,0.31179,,F-43m
JVASP-32441,SbS2NCl6,FAILED_JVASP-32441.cif,1.181,2.051,mBJ,0.87,-0.3679,,Immm
JVASP-54774,SbHO3,FAILED_JVASP-54774.cif,1.169,2.153,mBJ,0.984,-1.17387,,I4_1/amd
JVASP-8729,ScRu,FAILED_JVASP-8729.cif,0.0,0.0,mBJ,0.0,-0.59994,,Pm-3m
JVASP-11367,BaErCuS3,FAILED_JVASP-11367.cif,1.261,1.632,mBJ,0.371,-1.86507,,Cmcm
JVASP-8150,SiO2,FAILED_JVASP-8150.cif,4.9,6.805,mBJ,1.905,-2.46564,,Ibam
JVASP-8108,PrCuSO,FAILED_JVASP-8108.cif,1.856,2.833,mBJ,0.977,-2.10585,,P4/nmm
JVASP-7816,CaC2,FAILED_JVASP-7816.cif,2.243,2.969,mBJ,0.726,-0.18342,,C2/c
JVASP-13298,Zn2SnO4,FAILED_JVASP-13298.cif,1.04,2.542,mBJ,1.502,-1.65816,,Imma
JVASP-7690,YbSbPd,FAILED_JVASP-7690.cif,0.0,0.0,mBJ,0.0,-0.27228,,F-43m
JVASP-8766,Nd2O3,FAILED_JVASP-8766.cif,0.916,1.41,mBJ,0.494,-2.65518,,Pm-3m
JVASP-56756,TaV2,FAILED_JVASP-56756.cif,0.0,0.0,mBJ,0.0,-0.10018,,Fd-3m
JVASP-8626,SrFeO2,FAILED_JVASP-8626.cif,0.0,0.0,mBJ,0.0,-2.17198,,P4/mmm
JVASP-28461,W3Se2S4,FAILED_JVASP-28461.cif,0.692,1.121,mBJ,0.429,-0.74042,,P-6m2
JVASP-7729,HoMg,FAILED_JVASP-7729.cif,0.0,0.0,mBJ,0.0,-0.05906,,Pm-3m
JVASP-4828,AlPO4,FAILED_JVASP-4828.cif,5.438,7.054,mBJ,1.616,-2.73874,,Cmcm
JVASP-8695,NaLi5N2,FAILED_JVASP-8695.cif,2.996,3.243,mBJ,0.247,-0.22487,,P4/mmm
JVASP-51765,H8PdN2Cl6,FAILED_JVASP-51765.cif,1.086,1.811,mBJ,0.725,-0.55761,,Fm-3m
JVASP-60687,BaSb2F12,FAILED_JVASP-60687.cif,4.604,6.23,mBJ,1.626,-2.74203,,P-1
JVASP-14276,K3N,FAILED_JVASP-14276.cif,0.0,0.0,mBJ,0.0,0.34161,,P6_3/mcm
JVASP-7860,SnTe,FAILED_JVASP-7860.cif,0.185,0.292,mBJ,0.107,-0.31501,,Fm-3m
JVASP-8064,ScCuO2,FAILED_JVASP-8064.cif,2.399,2.457,mBJ,0.058,-2.58422,,R-3m
JVASP-51392,HCl,FAILED_JVASP-51392.cif,2.585,2.639,mBJ,0.054,-0.09748,,I4/mmm
JVASP-29407,Hg3AsS4Br,FAILED_JVASP-29407.cif,1.371,2.627,mBJ,1.256,-0.12748,,P6_3mc
JVASP-8365,CaNiN,FAILED_JVASP-8365.cif,0.0,0.0,mBJ,0.0,-0.84898,,P4_2/mmc
JVASP-7651,K2CuSb,FAILED_JVASP-7651.cif,1.248,1.742,mBJ,0.494,-0.40008,,Cmcm
JVASP-7691,YbC2,FAILED_JVASP-7691.cif,1.142,2.52,mBJ,1.378,-0.23942,,I4/mmm
JVASP-49911,NbNO,FAILED_JVASP-49911.cif,1.533,2.026,mBJ,0.493,-1.74672,,C2/m
JVASP-7963,InAgO2,FAILED_JVASP-7963.cif,0.432,1.342,mBJ,0.91,-1.17141,,P6_3/mmc
JVASP-13853,BaAgSb,FAILED_JVASP-13853.cif,0.0,0.0,mBJ,0.0,-0.40042,,P6_3/mmc
JVASP-52299,TaGaO4,FAILED_JVASP-52299.cif,3.44,4.709,mBJ,1.269,-2.59831,,Pnc2
JVASP-8109,HgS,FAILED_JVASP-8109.cif,1.399,2.427,mBJ,1.028,-0.01613,,P3_121
JVASP-8599,GaHO2,FAILED_JVASP-8599.cif,3.315,5.002,mBJ,1.687,-1.6436,,Pmn2_1
JVASP-8036,BaSO4,FAILED_JVASP-8036.cif,4.562,7.636,mBJ,3.074,-2.20562,,F-43m
JVASP-13023,HfTe4Cl6,FAILED_JVASP-13023.cif,0.902,1.069,mBJ,0.167,-0.99521,,P-1
JVASP-8190,Cu2WS4,FAILED_JVASP-8190.cif,0.787,1.554,mBJ,0.767,-0.49734,,P-42m
JVASP-51334,Ca2CoW,FAILED_JVASP-51334.cif,0.0,0.0,mBJ,0.0,0.74369,,F-43m
JVASP-8241,SbN,FAILED_JVASP-8241.cif,0.0,0.0,mBJ,0.0,1.32653,,Pm-3m
JVASP-9105,SbO2,FAILED_JVASP-9105.cif,2.34,3.185,mBJ,0.845,-1.5011,,C2/c
JVASP-51140,MnTcPd,FAILED_JVASP-51140.cif,0.0,0.0,mBJ,0.0,0.51295,,F-43m
JVASP-7652,RbAuC2,FAILED_JVASP-7652.cif,2.2,3.0,mBJ,0.8,0.12847,,P4/mmm
JVASP-8065,GeO2,FAILED_JVASP-8065.cif,1.366,3.035,mBJ,1.669,-1.76177,,P4_2/mnm
JVASP-8006,C,FAILED_JVASP-8006.cif,2.743,3.319,mBJ,0.576,0.79973,,Ia-3
JVASP-10997,Ba2DyNbO6,FAILED_JVASP-10997.cif,2.923,3.663,mBJ,0.74,-3.31013,,Fm-3m
JVASP-51222,InFeAs,FAILED_JVASP-51222.cif,0.0,0.0,mBJ,0.0,0.73523,,F-43m
JVASP-12948,KRbS,FAILED_JVASP-12948.cif,2.504,4.27,mBJ,1.766,-1.22045,,Pnma
JVASP-4771,AgB2,FAILED_JVASP-4771.cif,0.0,0.0,mBJ,0.0,0.48598,,P6/mmm
JVASP-56757,SrSi6N8,FAILED_JVASP-56757.cif,3.337,4.446,mBJ,1.109,-1.22247,,Imm2
JVASP-8768,SF4,FAILED_JVASP-8768.cif,1.498,1.87,mBJ,0.372,-1.23109,,I-42m
JVASP-7965,PrMnSi,FAILED_JVASP-7965.cif,0.0,0.0,mBJ,0.0,-0.43105,,P4/nmm
JVASP-48610,LiNbTe2WO12,FAILED_JVASP-48610.cif,1.89,2.279,mBJ,0.389,-1.72929,,P1
JVASP-2322,DyAgTe2,FAILED_JVASP-2322.cif,0.876,1.34,mBJ,0.464,-0.9253,,P-42_1m
JVASP-47796,Li2FeSiO4,FAILED_JVASP-47796.cif,0.085,0.0,mBJ,-0.085,-2.2592,,C222_1
JVASP-8696,Na5LiN2,FAILED_JVASP-8696.cif,0.0,0.0,mBJ,0.0,0.0614,,Pm
JVASP-12949,K2TiS3,FAILED_JVASP-12949.cif,1.164,1.343,mBJ,0.179,-1.52017,,C2/c
JVASP-7692,GaCuO2,FAILED_JVASP-7692.cif,1.032,1.191,mBJ,0.159,-1.47742,,P6_3/mmc
JVASP-8366,Ca3SbN,FAILED_JVASP-8366.cif,0.0,0.0,mBJ,0.0,0.51018,,Pm-3m
JVASP-13299,Dy5AgS8,FAILED_JVASP-13299.cif,1.713,2.075,mBJ,0.362,-1.99629,,I-4
JVASP-7785,SnS,FAILED_JVASP-7785.cif,0.614,1.557,mBJ,0.943,-0.44969,,Cmcm
JVASP-8811,Ho2CdS4,FAILED_JVASP-8811.cif,0.68,1.758,mBJ,1.078,-1.67972,,I-4m2
JVASP-7653,NaAuC2,FAILED_JVASP-7653.cif,1.524,2.24,mBJ,0.716,0.1955,,P4/mmm
JVASP-8283,BiF5,FAILED_JVASP-8283.cif,0.0,0.0,mBJ,0.0,-1.64951,,Immm
JVASP-22579,KMnF3,FAILED_JVASP-22579.cif,0.0,0.0,mBJ,0.0,-2.24498,,I4/mcm
JVASP-4864,BaBOF3,FAILED_JVASP-4864.cif,6.377,8.114,mBJ,1.737,-3.34732,,Pnma
JVASP-8600,NaHO,FAILED_JVASP-8600.cif,3.18,6.295,mBJ,3.115,-1.41624,,Cmcm
JVASP-28897,WSeS,FAILED_JVASP-28897.cif,0.602,0.94,mBJ,0.338,-0.68706,,P3m1
JVASP-51262,BaHfMo,FAILED_JVASP-51262.cif,0.0,0.0,mBJ,0.0,1.10947,,F-43m
JVASP-26528,Rb2IrF6,FAILED_JVASP-26528.cif,0.0,0.0,mBJ,0.0,-2.34372,,P-3m1
JVASP-13300,Zr7N4O8,FAILED_JVASP-13300.cif,2.677,3.246,mBJ,0.569,-2.97685,,P-1
JVASP-8029,BaTiO3,FAILED_JVASP-8029.cif,1.764,2.019,mBJ,0.255,-3.34633,,Pm-3m
JVASP-10998,Ba2HoNbO6,FAILED_JVASP-10998.cif,2.921,3.665,mBJ,0.744,-3.32192,,Fm-3m
JVASP-18781,TaPt3,FAILED_JVASP-18781.cif,0.0,0.0,mBJ,0.0,-0.71487,,Pmmn
JVASP-12131,HfIN,FAILED_JVASP-12131.cif,0.99,1.67,mBJ,0.68,-1.53912,,R-3m
JVASP-51300,TlCoMo2,FAILED_JVASP-51300.cif,0.0,0.0,mBJ,0.0,0.64552,,F-43m
JVASP-1459,TmNiSb,FAILED_JVASP-1459.cif,0.228,0.253,mBJ,0.025,-0.92197,,F-43m
JVASP-8769,AgI2,FAILED_JVASP-8769.cif,0.0,0.0,mBJ,0.0,-0.03477,,P-4m2
JVASP-7654,KAuC2,FAILED_JVASP-7654.cif,2.013,2.876,mBJ,0.863,0.12181,,P4/mmm
JVASP-12058,Si3H,FAILED_JVASP-12058.cif,0.959,1.645,mBJ,0.686,0.03699,,P-3m1
JVASP-8243,BiOF,FAILED_JVASP-8243.cif,2.821,4.526,mBJ,1.705,-1.97918,,P4/nmm
JVASP-51142,NaOsSe2,FAILED_JVASP-51142.cif,0.0,0.0,mBJ,0.0,0.86981,,F-43m
JVASP-8812,KNO2,FAILED_JVASP-8812.cif,2.52,3.858,mBJ,1.338,-1.00562,,Cm
JVASP-7966,ZrPbO3,FAILED_JVASP-7966.cif,2.809,3.98,mBJ,1.171,-2.69931,,Amm2
JVASP-8367,Ca3BiN,FAILED_JVASP-8367.cif,0.431,0.95,mBJ,0.519,-1.19778,,Pm-3m
JVASP-7693,ScAuO2,FAILED_JVASP-7693.cif,1.915,2.873,mBJ,0.958,-2.41291,,P6_3/mmc
JVASP-51394,Cd2H2SO6,FAILED_JVASP-51394.cif,2.889,5.09,mBJ,2.201,-1.30262,,C2/c
JVASP-58500,YNi2O4,FAILED_JVASP-58500.cif,0.0,0.0,mBJ,0.0,-1.76348,,Fd-3m
JVASP-29550,C3N4,FAILED_JVASP-29550.cif,1.435,2.796,mBJ,1.361,0.33889,,P-6m2
JVASP-54724,ScHO2,FAILED_JVASP-54724.cif,4.583,5.544,mBJ,0.961,-2.77256,,Pnma
JVASP-8151,KNbSe2,FAILED_JVASP-8151.cif,0.804,1.195,mBJ,0.391,-1.0671,,P6_3/mmc
JVASP-8284,AlCuF5,FAILED_JVASP-8284.cif,0.0,0.0,mBJ,0.0,-2.77463,,Immm
JVASP-8601,NaHO,FAILED_JVASP-8601.cif,3.196,6.301,mBJ,3.105,-1.41624,,P2_1/m
JVASP-5098,PtPb,FAILED_JVASP-5098.cif,0.0,0.0,mBJ,0.0,0.01768,,P6_3/mmc
JVASP-29502,PbS,FAILED_JVASP-29502.cif,1.816,3.753,mBJ,1.937,-0.46848,,C2/m
JVASP-10999,Ba2TmNbO6,FAILED_JVASP-10999.cif,2.914,3.647,mBJ,0.733,-3.34693,,Fm-3m
JVASP-7786,ZnSnF6,FAILED_JVASP-7786.cif,3.775,5.607,mBJ,1.832,-2.51356,,R-3
JVASP-12950,Na4SnSe4,FAILED_JVASP-12950.cif,1.461,2.875,mBJ,1.414,-0.97517,,P-42_1c
JVASP-52944,Li4MoO5,FAILED_JVASP-52944.cif,2.845,3.111,mBJ,0.266,-2.31579,,I4
JVASP-7818,P,FAILED_JVASP-7818.cif,0.056,1.803,mBJ,1.747,-0.0,,Cmce
JVASP-52872,RbHS,FAILED_JVASP-52872.cif,3.243,5.382,mBJ,2.139,-0.86083,,P2_1/m
JVASP-8110,Tb2Fe2Si2C,FAILED_JVASP-8110.cif,0.0,0.0,mBJ,0.0,-0.71581,,C2/m
JVASP-13301,LiMn4O8,FAILED_JVASP-13301.cif,0.0,0.0,mBJ,0.0,-1.91375,,F-43m
JVASP-8698,KrF2,FAILED_JVASP-8698.cif,2.629,4.153,mBJ,1.524,-0.12413,,I4/mmm
JVASP-52489,RbNO3,FAILED_JVASP-52489.cif,3.018,4.245,mBJ,1.227,-1.01096,,R32
JVASP-13425,SbSCl9,FAILED_JVASP-13425.cif,1.444,2.427,mBJ,0.983,-0.4471,,R-3m
JVASP-8813,MgGeP2,FAILED_JVASP-8813.cif,1.487,2.219,mBJ,0.732,-0.37542,,I-42d
JVASP-8602,RbCaH3,FAILED_JVASP-8602.cif,3.345,4.936,mBJ,1.591,-0.51685,,Pm-3m
JVASP-29590,BN,FAILED_JVASP-29590.cif,3.822,5.482,mBJ,1.66,-1.04236,,P2_1/c
JVASP-7863,KCoO2,FAILED_JVASP-7863.cif,0.0,0.0,mBJ,0.0,-1.33324,,I-42d
JVASP-8814,CaHN,FAILED_JVASP-8814.cif,2.503,3.723,mBJ,1.22,-0.88306,,I4mm
JVASP-7731,ErCdCu4,FAILED_JVASP-7731.cif,0.0,0.0,mBJ,0.0,-0.27362,,F-43m
JVASP-7655,Nb2O5,FAILED_JVASP-7655.cif,1.84,2.609,mBJ,0.769,-2.39579,,C2
JVASP-27530,Na6ZnS4,FAILED_JVASP-27530.cif,2.237,4.331,mBJ,2.094,-1.17512,,P6_3mc
JVASP-8368,Sr2ZnCu2S2O2,FAILED_JVASP-8368.cif,1.006,2.167,mBJ,1.161,-1.61671,,I4/mmm
JVASP-8657,YUO4,FAILED_JVASP-8657.cif,0.0,2.357,mBJ,2.357,-3.74084,,P4/mmm
JVASP-8732,Ho6CoBi2,FAILED_JVASP-8732.cif,0.0,0.0,mBJ,0.0,-0.48542,,P-62m
JVASP-52952,PbWO4,FAILED_JVASP-52952.cif,3.302,3.937,mBJ,0.635,-2.15181,,I4_1/a
JVASP-51223,KTi2Bi,FAILED_JVASP-51223.cif,0.0,0.0,mBJ,0.0,0.65037,,Fm-3m
JVASP-8603,CuH,FAILED_JVASP-8603.cif,0.676,1.072,mBJ,0.396,0.1519,,P6_3mc
JVASP-11737,Ba2MnTeO6,FAILED_JVASP-11737.cif,0.0,0.0,mBJ,0.0,-2.18302,,Fm-3m
JVASP-2325,Rb2Pt3S4,FAILED_JVASP-2325.cif,1.42,1.754,mBJ,0.334,-0.78077,,Fmmm
JVASP-8152,Li3Sb,FAILED_JVASP-8152.cif,0.607,0.847,mBJ,0.24,-0.69015,,P6_3/mmc
JVASP-51264,TcNiW,FAILED_JVASP-51264.cif,0.0,0.0,mBJ,0.0,0.4156,,F-43m
JVASP-7864,AlPt3,FAILED_JVASP-7864.cif,0.0,0.0,mBJ,0.0,-0.67569,,Pm-3m
JVASP-4774,NpCr2Si2,FAILED_JVASP-4774.cif,0.0,0.0,mBJ,0.0,-0.17238,,I4/mmm
JVASP-7787,CdSnF6,FAILED_JVASP-7787.cif,3.859,6.687,mBJ,2.828,-2.4579,,R-3
JVASP-12138,CuBiP2Se6,FAILED_JVASP-12138.cif,0.574,1.144,mBJ,0.57,-0.14449,,P-31c
JVASP-7819,Nb2O5,FAILED_JVASP-7819.cif,2.17,2.816,mBJ,0.646,-2.68686,,C2/m
JVASP-8770,CuI4,FAILED_JVASP-8770.cif,0.0,0.0,mBJ,0.0,-0.04161,,Fmm2
JVASP-8539,TlInS2,FAILED_JVASP-8539.cif,0.734,1.413,mBJ,0.679,-0.60709,,R-3m
JVASP-19105,Na2S2O3,FAILED_JVASP-19105.cif,4.294,5.731,mBJ,1.437,-1.53285,,P2_1/c
JVASP-8369,AlCuSe2,FAILED_JVASP-8369.cif,1.069,1.776,mBJ,0.707,-0.68207,,I-42d
JVASP-29339,NbSe2Br2,FAILED_JVASP-29339.cif,0.912,1.341,mBJ,0.429,-0.77231,,P-1
JVASP-54225,SiO2,FAILED_JVASP-54225.cif,5.452,9.094,mBJ,3.642,-2.82611,,P-4m2
JVASP-8113,AgCNO,FAILED_JVASP-8113.cif,3.18,4.095,mBJ,0.915,-0.26677,,P2_1/m
JVASP-54725,MoH4O5,FAILED_JVASP-54725.cif,1.016,1.282,mBJ,0.266,-1.28759,,P-1
JVASP-12952,Na3PS4,FAILED_JVASP-12952.cif,2.234,3.338,mBJ,1.104,-0.98688,,P-42_1c
JVASP-58504,ZnCr4S8,FAILED_JVASP-58504.cif,0.0,0.0,mBJ,0.0,-0.66282,,R-3m
JVASP-8066,ZnSnSb2,FAILED_JVASP-8066.cif,0.0,0.261,mBJ,0.261,-0.05258,,I-42d
JVASP-8324,MgV2O6,FAILED_JVASP-8324.cif,0.0,0.0,mBJ,0.0,-2.06254,,Amm2
JVASP-22580,K3WF6,FAILED_JVASP-22580.cif,0.0,0.0,mBJ,0.0,-2.48009,,Fm-3m
JVASP-8246,CrO2,FAILED_JVASP-8246.cif,0.0,0.0,mBJ,0.0,-1.87779,,R-3m
JVASP-54780,SbHO3,FAILED_JVASP-54780.cif,1.263,2.256,mBJ,0.993,-1.18619,,Fdd2
JVASP-8153,Mg2SiO4,FAILED_JVASP-8153.cif,4.021,6.328,mBJ,2.307,-2.66738,,I4/mmm
JVASP-7820,Li2CuSb,FAILED_JVASP-7820.cif,0.608,0.847,mBJ,0.239,-0.44584,,F-43m
JVASP-32834,InCl,FAILED_JVASP-32834.cif,1.593,1.841,mBJ,0.248,-0.91728,,Cmcm
JVASP-12403,ZnIn2S4,FAILED_JVASP-12403.cif,1.153,2.527,mBJ,1.374,-0.69225,,Fd-3m
JVASP-7789,Rb2O,FAILED_JVASP-7789.cif,1.607,4.254,mBJ,2.647,-1.15218,,Fm-3m
JVASP-7656,BaCu2Se2,FAILED_JVASP-7656.cif,0.466,1.115,mBJ,0.649,-0.9066,,I4/mmm
JVASP-7968,NaAuO2,FAILED_JVASP-7968.cif,1.165,1.851,mBJ,0.686,-0.87279,,Cmcm
JVASP-8288,BiN,FAILED_JVASP-8288.cif,0.295,0.806,mBJ,0.511,0.55543,,Pmn2_1
JVASP-8733,NaClO2,FAILED_JVASP-8733.cif,2.554,3.976,mBJ,1.422,-0.73146,,C2/c
JVASP-8605,LiNd2HO3,FAILED_JVASP-8605.cif,2.054,3.322,mBJ,1.268,-2.73287,,Immm
JVASP-7865,Na5NiSO2,FAILED_JVASP-7865.cif,0.0,0.0,mBJ,0.0,-1.22902,,P4/mmm
JVASP-59882,YCo2S4,FAILED_JVASP-59882.cif,0.0,0.0,mBJ,0.0,-0.79886,,Fd-3m
JVASP-9089,CaP,FAILED_JVASP-9089.cif,0.372,1.052,mBJ,0.68,-1.22992,,P-62m
JVASP-11738,LuVO4,FAILED_JVASP-11738.cif,2.747,3.261,mBJ,0.514,-3.24243,,I4_1/amd
JVASP-8114,MnN,FAILED_JVASP-8114.cif,0.0,0.0,mBJ,0.0,-0.31255,,Fm-3m
JVASP-7732,KAg2AsO4,FAILED_JVASP-7732.cif,0.249,1.683,mBJ,1.434,-1.10482,,I-42m
JVASP-29673,HgBr2,FAILED_JVASP-29673.cif,1.412,2.768,mBJ,1.356,-0.32301,,P31m
JVASP-56819,PtCl2,FAILED_JVASP-56819.cif,0.602,0.951,mBJ,0.349,-0.32802,,Pnnm
JVASP-22581,ZnS,FAILED_JVASP-22581.cif,2.11,3.613,mBJ,1.503,-0.885,,R3m
JVASP-8370,AlCuS2,FAILED_JVASP-8370.cif,1.896,2.545,mBJ,0.649,-0.94349,,I-42d
JVASP-52957,AsH6NO4,FAILED_JVASP-52957.cif,4.301,6.205,mBJ,1.904,-0.86518,,I-42d
JVASP-8816,Ag3AuS2,FAILED_JVASP-8816.cif,1.208,1.922,mBJ,0.714,-0.05738,,P1
JVASP-8067,C,FAILED_JVASP-8067.cif,3.764,4.762,mBJ,0.998,0.12945,,P6_3/mmc
JVASP-4777,TlFe2S2,FAILED_JVASP-4777.cif,0.0,0.0,mBJ,0.0,-0.35079,,I4/mmm
JVASP-8771,RbO2,FAILED_JVASP-8771.cif,0.0,0.0,mBJ,0.0,-0.99712,,Cmmm
JVASP-9072,Ca3N2,FAILED_JVASP-9072.cif,1.042,2.295,mBJ,1.253,-1.01403,,R-3c
JVASP-8289,CaMn2N2,FAILED_JVASP-8289.cif,0.0,0.0,mBJ,0.0,-0.28554,,P-4m2
JVASP-29593,ZnSe,FAILED_JVASP-29593.cif,1.539,2.668,mBJ,1.129,-0.5344,,P4/nmm
JVASP-8115,KNaO,FAILED_JVASP-8115.cif,2.649,4.973,mBJ,2.324,-1.33692,,P4/nmm
JVASP-8545,ZrSnPd,FAILED_JVASP-8545.cif,0.092,0.142,mBJ,0.05,-0.249,,F-43m
JVASP-8032,AlCuO2,FAILED_JVASP-8032.cif,2.088,2.082,mBJ,-0.006,-2.30548,,P6_3/mmc
JVASP-8037,SrZrO3,FAILED_JVASP-8037.cif,3.447,4.137,mBJ,0.69,-3.52884,,Pm-3m
JVASP-51302,ZrAgMo,FAILED_JVASP-51302.cif,0.0,0.0,mBJ,0.0,0.90373,,F-43m
JVASP-12954,Mg2C3,FAILED_JVASP-12954.cif,1.741,2.409,mBJ,0.668,0.0351,,Pnnm
JVASP-8371,ZnCu2GeS4,FAILED_JVASP-8371.cif,0.325,1.031,mBJ,0.706,-0.51185,,I-42m
JVASP-8410,BaTaCuO5,FAILED_JVASP-8410.cif,0.0,0.0,mBJ,0.0,-2.1452,,P4mm
JVASP-22652,ScSbPd,FAILED_JVASP-22652.cif,0.296,0.3,mBJ,0.004,-1.03333,,F-43m
JVASP-29503,TcSO6F,FAILED_JVASP-29503.cif,2.881,5.701,mBJ,2.82,-1.40016,,P2_1/c
JVASP-8490,InSe,FAILED_JVASP-8490.cif,0.877,1.537,mBJ,0.66,-0.49486,,C2/m
JVASP-8633,VPbO3,FAILED_JVASP-8633.cif,0.0,1.768,mBJ,1.768,-2.04729,,P4mm
JVASP-7790,ZnPdF6,FAILED_JVASP-7790.cif,1.709,1.694,mBJ,-0.015,-1.77004,,R-3
JVASP-12955,Sr5Au2O8,FAILED_JVASP-12955.cif,1.352,1.943,mBJ,0.591,-2.23101,,I4/mmm
JVASP-8001,IrF3,FAILED_JVASP-8001.cif,1.225,1.24,mBJ,0.015,-1.40066,,R-3c
JVASP-50502,Bi2B2O7,FAILED_JVASP-50502.cif,0.33,0.669,mBJ,0.339,-1.70861,,P-1
JVASP-56984,Ca3SiBr2,FAILED_JVASP-56984.cif,0.114,0.473,mBJ,0.359,-1.34471,,Immm
JVASP-7821,BN,FAILED_JVASP-7821.cif,1.613,3.238,mBJ,1.625,-1.24634,,Cm
JVASP-8154,S,FAILED_JVASP-8154.cif,1.96,3.045,mBJ,1.085,0.01586,,R-3
JVASP-143,GaS,FAILED_JVASP-143.cif,1.5,2.35,HSE,0.85,-0.70648,,P6_3/mmc
JVASP-54274,PdO,FAILED_JVASP-54274.cif,0.0,0.0,mBJ,0.0,0.22495,,Pm-3m
JVASP-9090,B6O,FAILED_JVASP-9090.cif,2.214,2.402,mBJ,0.188,-0.7527,,R-3m
JVASP-11739,VPO5,FAILED_JVASP-11739.cif,1.343,1.733,mBJ,0.39,-2.32184,,P4/nmm
JVASP-12519,ZnI2O6,FAILED_JVASP-12519.cif,3.145,4.001,mBJ,0.856,-0.6734,,P2_1
JVASP-48573,VO2F,FAILED_JVASP-48573.cif,1.357,1.726,mBJ,0.369,-2.54904,,Cc
JVASP-19106,SnPS3,FAILED_JVASP-19106.cif,1.732,2.119,mBJ,0.387,-0.41973,,P2_1/c
JVASP-14097,ErSi2,FAILED_JVASP-14097.cif,0.0,0.0,mBJ,0.0,-0.4265,,P6/mmm
JVASP-9110,C3N4,FAILED_JVASP-9110.cif,3.588,4.27,mBJ,0.682,0.491,,P6_3/m
JVASP-8116,YCuO2,FAILED_JVASP-8116.cif,2.877,2.88,mBJ,0.003,-2.60561,,R-3m
JVASP-52376,CaPbI4,FAILED_JVASP-52376.cif,2.879,3.531,mBJ,0.652,-1.18747,,C2/m
JVASP-56758,KC2IN2,FAILED_JVASP-56758.cif,4.211,5.452,mBJ,1.241,0.02755,,C2/m
JVASP-12274,InGaS3,FAILED_JVASP-12274.cif,1.547,2.809,mBJ,1.262,-0.67815,,Cmc2_1
JVASP-29595,ErTe3,FAILED_JVASP-29595.cif,0.0,0.0,mBJ,0.0,-0.56721,,Cmcm
JVASP-8734,CuCl2,FAILED_JVASP-8734.cif,0.0,0.0,mBJ,0.0,-0.52925,,C2/m
JVASP-24907,Sr2Fe2Se2OF2,FAILED_JVASP-24907.cif,0.0,0.0,mBJ,0.0,-2.13083,,I4/mmm
JVASP-51338,FePbW2,FAILED_JVASP-51338.cif,0.0,0.0,mBJ,0.0,0.57296,,F-43m
JVASP-8372,Ca2CoO3,FAILED_JVASP-8372.cif,0.0,0.0,mBJ,0.0,-2.33667,,Fmm2
JVASP-308,TiO2,FAILED_JVASP-308.cif,2.354,3.78,HSE,1.426,-3.08044,,R-3m
JVASP-8701,Rb3BrO,FAILED_JVASP-8701.cif,0.458,2.203,mBJ,1.745,-1.43649,,Pm-3m
JVASP-8635,UV2O6,FAILED_JVASP-8635.cif,0.0,0.0,mBJ,0.0,-2.90764,,P-31m
JVASP-7658,SrC2,FAILED_JVASP-7658.cif,2.401,3.358,mBJ,0.957,-0.1664,,C2/c
JVASP-51768,AgH4WS4N,FAILED_JVASP-51768.cif,1.689,1.988,mBJ,0.299,-0.43963,,I-4
JVASP-11002,TbNbO4,FAILED_JVASP-11002.cif,3.489,4.164,mBJ,0.675,-3.33692,,C2/c
JVASP-52966,Cu8O,FAILED_JVASP-52966.cif,0.0,0.0,mBJ,0.0,-0.06343,,Cmmm
JVASP-29371,HgPb2Cl2O2,FAILED_JVASP-29371.cif,2.401,3.515,mBJ,1.114,-1.04021,,C2/m
JVASP-8118,SiC,FAILED_JVASP-8118.cif,2.618,3.43,mBJ,0.812,-0.23851,,P6_3mc
JVASP-7915,In2Co3S2,FAILED_JVASP-7915.cif,0.0,0.0,mBJ,0.0,-0.36744,,R-3m
JVASP-55312,TlV2AgO6,FAILED_JVASP-55312.cif,1.911,2.229,mBJ,0.318,-1.94514,,C2/c
JVASP-54286,MgSiO3,FAILED_JVASP-54286.cif,5.543,7.207,mBJ,1.664,-2.83162,,C2/c
JVASP-29506,V2MoO8,FAILED_JVASP-29506.cif,1.003,1.496,mBJ,0.493,-2.25722,,Cm
JVASP-7695,SrP3,FAILED_JVASP-7695.cif,0.065,0.418,mBJ,0.353,-0.73625,,C2/m
JVASP-4334,NdSb,FAILED_JVASP-4334.cif,0.0,0.0,mBJ,0.0,-0.959,,P4/mmm
JVASP-8817,NaBiSe2,FAILED_JVASP-8817.cif,0.757,0.887,mBJ,0.13,-0.75103,,I4_1/amd
JVASP-76260,K2RbPt,FAILED_JVASP-76260.cif,0.0,0.0,mBJ,0.0,0.02652,,P4/mbm