material_id,formula,cif_path,pbe_bandgap,hse_bandgap,gap_type,correction,formation_energy,total_energy,spacegroup
JVASP-29843,AlH3O3,FAILED_JVASP-29843.cif,5.407,7.299,mBJ,1.892,-1.8319,,Cm
JVASP-28463,Te2W3S4,FAILED_JVASP-28463.cif,0.301,0.209,mBJ,-0.092,-0.52538,,Cm
JVASP-53602,Zn2GeS4,FAILED_JVASP-53602.cif,2.255,3.355,mBJ,1.1,-0.65842,,I-42m
JVASP-8824,ZnCrF6,FAILED_JVASP-8824.cif,0.0,0.23,mBJ,0.23,-2.51155,,R-3
JVASP-51398,NaN3,FAILED_JVASP-51398.cif,4.069,5.272,mBJ,1.203,-0.14849,,C2/m
JVASP-11172,ThP2S6,FAILED_JVASP-11172.cif,2.588,3.089,mBJ,0.501,-0.89578,,P4_2/m
JVASP-5650,Re2PbO8,FAILED_JVASP-5650.cif,3.546,4.332,mBJ,0.786,-1.69125,,P31m
JVASP-54729,MoH4O5,FAILED_JVASP-54729.cif,2.531,3.096,mBJ,0.565,-1.39653,,Pc
JVASP-7706,LiGaSi,FAILED_JVASP-7706.cif,0.226,0.663,mBJ,0.437,-0.18724,,F-43m
JVASP-8167,ZrSO,FAILED_JVASP-8167.cif,0.956,1.334,mBJ,0.378,-2.72025,,P4/nmm
JVASP-12920,Tl3BSe3,FAILED_JVASP-12920.cif,1.039,1.583,mBJ,0.544,-0.32716,,P2_1/m
JVASP-8614,CoO,FAILED_JVASP-8614.cif,0.0,0.0,mBJ,0.0,-0.79121,,F-43m
JVASP-53615,HC2O2,FAILED_JVASP-53615.cif,2.978,4.191,mBJ,1.213,-0.60298,,Cm
JVASP-8076,CdGeAs2,FAILED_JVASP-8076.cif,0.145,0.523,mBJ,0.378,-0.06465,,I-42d
JVASP-113,ZrO2,FAILED_JVASP-113.cif,3.622,4.213,mBJ,0.591,-3.70068,,P2_1/c
JVASP-8256,TiO2,FAILED_JVASP-8256.cif,2.331,2.686,mBJ,0.355,-3.06336,,R-3m
JVASP-29633,CdI2,FAILED_JVASP-29633.cif,2.206,3.388,mBJ,1.182,-0.58144,,P3m1
JVASP-50632,BaYF5,FAILED_JVASP-50632.cif,6.583,9.105,mBJ,2.522,-4.1226,,C2/c
JVASP-8301,MgMoF6,FAILED_JVASP-8301.cif,0.0,0.0,mBJ,0.0,-2.99732,,R-3
JVASP-12529,RbIO4,FAILED_JVASP-12529.cif,2.454,3.823,mBJ,1.369,-0.76895,,I4_1/a
JVASP-11802,Ba2CaWO6,FAILED_JVASP-11802.cif,0.609,3.872,mBJ,3.263,-3.0629,,I4/m
JVASP-52312,SrNd2O4,FAILED_JVASP-52312.cif,3.748,5.057,mBJ,1.309,-3.37021,,Fd-3m
JVASP-8664,SO2,FAILED_JVASP-8664.cif,2.646,4.238,mBJ,1.592,-1.08656,,Aea2
JVASP-56396,Yb2Sn,FAILED_JVASP-56396.cif,0.0,0.0,mBJ,0.0,-0.7292,,P6_3/mmc
JVASP-33317,BH4O2F3,FAILED_JVASP-33317.cif,7.528,11.012,mBJ,3.484,-1.81995,,P2_1/c
JVASP-52878,CaZnSiH2O5,FAILED_JVASP-52878.cif,3.9,5.921,mBJ,2.021,-2.23884,,Cc
JVASP-7925,FeTe2,FAILED_JVASP-7925.cif,0.0,0.0,mBJ,0.0,-0.17447,,Pnnm
JVASP-8739,BaZnSn,FAILED_JVASP-8739.cif,0.0,0.0,mBJ,0.0,-0.6008,,P6_3/mmc
JVASP-19298,Mg3Fe2O7,FAILED_JVASP-19298.cif,0.0,0.0,mBJ,0.0,-2.16759,,Cmc2_1
JVASP-12334,PbSeO3,FAILED_JVASP-12334.cif,3.052,4.233,mBJ,1.181,-1.1288,,P2_1/m
JVASP-51399,NaCaSiHO4,FAILED_JVASP-51399.cif,4.812,7.455,mBJ,2.643,-2.59012,,P2_1
JVASP-30279,Co3SbO8,FAILED_JVASP-30279.cif,0.0,0.0,mBJ,0.0,-1.09265,,R-3m
JVASP-48163,Li3Fe3CoO8,FAILED_JVASP-48163.cif,0.0,0.0,mBJ,0.0,-1.68704,,Cm
JVASP-11747,YbCrO4,FAILED_JVASP-11747.cif,2.102,2.609,mBJ,0.507,-2.71289,,I4_1/amd
JVASP-50521,ErTa3O9,FAILED_JVASP-50521.cif,3.476,4.546,mBJ,1.07,-3.26397,,P2_1/m
JVASP-8646,LiNiO2,FAILED_JVASP-8646.cif,0.0,0.0,mBJ,0.0,-1.3938,,Imm2
JVASP-4639,AgCN,FAILED_JVASP-4639.cif,3.333,3.95,mBJ,0.617,0.44743,,R3m
JVASP-11175,Sr3P4,FAILED_JVASP-11175.cif,0.86,1.249,mBJ,0.389,-1.07744,,Fdd2
JVASP-11129,KPrSiSe4,FAILED_JVASP-11129.cif,2.131,2.882,mBJ,0.751,-1.27934,,P2_1
JVASP-50080,DyHO2,FAILED_JVASP-50080.cif,4.215,6.264,mBJ,2.049,-2.69103,,P6_3/mmc
JVASP-51344,NaHF2,FAILED_JVASP-51344.cif,7.103,11.844,mBJ,4.741,-2.26266,,P1
JVASP-8257,SnO2,FAILED_JVASP-8257.cif,1.472,3.031,mBJ,1.559,-1.60225,,R-3m
JVASP-12921,BaAl2Te4,FAILED_JVASP-12921.cif,1.609,2.107,mBJ,0.498,-0.95586,,P4/nbm
JVASP-50846,Sr2Li2Nb4O13,FAILED_JVASP-50846.cif,1.47,1.415,mBJ,-0.055,-2.8748,,I4/mmm
JVASP-19299,Mg3Ni2O7,FAILED_JVASP-19299.cif,0.259,0.195,mBJ,-0.064,-1.88443,,Cmc2_1
JVASP-8338,CaSbF6,FAILED_JVASP-8338.cif,0.0,4.558,mBJ,4.558,-2.94646,,R-3
JVASP-7882,VO,FAILED_JVASP-7882.cif,0.0,0.0,mBJ,0.0,-1.66796,,Fm-3m
JVASP-9598,NaNbO3,FAILED_JVASP-9598.cif,1.656,2.309,mBJ,0.653,-2.60528,,P4/mbm
JVASP-7926,ThSnPt,FAILED_JVASP-7926.cif,0.639,0.687,mBJ,0.048,-1.08033,,F-43m
JVASP-33318,H4NClO2,FAILED_JVASP-33318.cif,2.936,4.331,mBJ,1.395,-0.32656,,P-42_1m
JVASP-8433,BaMnGe,FAILED_JVASP-8433.cif,0.0,0.0,mBJ,0.0,-0.21905,,P4/nmm
JVASP-54730,MoH4O5,FAILED_JVASP-54730.cif,2.263,2.82,mBJ,0.557,-1.39958,,P1
JVASP-47889,Li2CrSiO4,FAILED_JVASP-47889.cif,0.0,0.0,mBJ,0.0,-2.29792,,Pc
JVASP-8648,VO2,FAILED_JVASP-8648.cif,0.0,2.073,mBJ,2.073,-2.34627,,R-3m
JVASP-29908,ZrP2H2O6,FAILED_JVASP-29908.cif,4.505,5.082,mBJ,0.577,-2.22883,,P-3
JVASP-22584,VF2,FAILED_JVASP-22584.cif,0.0,0.0,mBJ,0.0,-2.36855,,P4_2/mnm
JVASP-13856,GaSe,FAILED_JVASP-13856.cif,0.835,2.106,mBJ,1.271,-0.58222,,R3m
JVASP-59573,Sr3NiIrO6,FAILED_JVASP-59573.cif,0.0,0.0,mBJ,0.0,-2.10735,,R-3c
JVASP-8077,Sc3CoC4,FAILED_JVASP-8077.cif,0.0,0.0,mBJ,0.0,-0.55818,,Immm
JVASP-8128,BaSe3,FAILED_JVASP-8128.cif,0.996,1.933,mBJ,0.937,-1.1264,,P-42_1m
JVASP-542,NiTe2,FAILED_JVASP-542.cif,0.0,0.0,mBJ,0.0,-0.21349,,P-3m1
JVASP-8302,SbF5,FAILED_JVASP-8302.cif,0.568,1.478,mBJ,0.91,-1.92193,,Immm
JVASP-12569,H4N2O3,FAILED_JVASP-12569.cif,3.139,4.37,mBJ,1.231,-0.47549,,Pmmn
JVASP-8383,YWF5,FAILED_JVASP-8383.cif,0.0,0.908,mBJ,0.908,-2.67255,,Immm
JVASP-9436,SmTaO4,FAILED_JVASP-9436.cif,4.047,5.313,mBJ,1.266,-3.47015,,C2/c
JVASP-9126,As2Pt,FAILED_JVASP-9126.cif,0.068,0.153,mBJ,0.085,-0.48214,,Pa-3
JVASP-45324,Ca4PtO6,FAILED_JVASP-45324.cif,2.412,2.64,mBJ,0.228,-2.60507,,R-3c
JVASP-7928,DyCr2Si2,FAILED_JVASP-7928.cif,0.0,0.0,mBJ,0.0,-0.383,,I4/mmm
JVASP-29786,NiH2O2,FAILED_JVASP-29786.cif,0.0,0.0,mBJ,0.0,-0.74463,,P-3m1
JVASP-54307,FeHO2,FAILED_JVASP-54307.cif,0.0,0.0,mBJ,0.0,-1.23742,,Pnma
JVASP-8665,ICl3,FAILED_JVASP-8665.cif,1.455,3.148,mBJ,1.693,-0.18588,,P-1
JVASP-49913,Y2O3,FAILED_JVASP-49913.cif,4.673,5.865,mBJ,1.192,-3.81663,,R-3c
JVASP-8339,TeF6,FAILED_JVASP-8339.cif,4.242,5.628,mBJ,1.386,-2.0158,,R-3
JVASP-7982,Pr2O3,FAILED_JVASP-7982.cif,3.895,5.214,mBJ,1.319,-3.53938,,P-3m1
JVASP-8742,AlFe2Ni,FAILED_JVASP-8742.cif,0.0,0.0,mBJ,0.0,-0.09958,,Fm-3m
JVASP-12668,V2Pb3O8,FAILED_JVASP-12668.cif,2.861,2.981,mBJ,0.12,-2.05488,,C2
JVASP-8129,GeS2,FAILED_JVASP-8129.cif,2.218,3.131,mBJ,0.913,-0.35879,,I-42d
JVASP-8781,BiTeBr,FAILED_JVASP-8781.cif,1.131,1.899,mBJ,0.768,-0.50382,,P3m1
JVASP-8259,AlCuO2,FAILED_JVASP-8259.cif,2.088,2.082,mBJ,-0.006,-2.3055,,P6_3/mmc
JVASP-52317,NaBeO2,FAILED_JVASP-52317.cif,3.147,4.781,mBJ,1.634,-2.06827,,C2/c
JVASP-8827,Li3TaO4,FAILED_JVASP-8827.cif,1.57,2.959,mBJ,1.389,-2.66224,,I4/mmm
JVASP-7711,ZrIr,FAILED_JVASP-7711.cif,0.0,0.0,mBJ,0.0,-0.86473,,Pm-3m
JVASP-8168,BaTe3,FAILED_JVASP-8168.cif,0.755,1.289,mBJ,0.534,-0.94926,,P-42_1m
JVASP-50139,Na2O,FAILED_JVASP-50139.cif,2.208,4.703,mBJ,2.495,-1.41039,,Fm-3m
JVASP-11006,KAlO2,FAILED_JVASP-11006.cif,4.152,6.498,mBJ,2.346,-2.82682,,P4_12_12
JVASP-56902,BaSi6N8,FAILED_JVASP-56902.cif,3.426,4.423,mBJ,0.997,-1.23741,,Imm2
JVASP-12922,CdH2O2,FAILED_JVASP-12922.cif,1.797,3.919,mBJ,2.122,-1.08545,,Cm
JVASP-9393,TbAsO4,FAILED_JVASP-9393.cif,3.852,5.449,mBJ,1.597,-2.52317,,I4_1/amd
JVASP-12027,ZrBrN,FAILED_JVASP-12027.cif,1.872,2.244,mBJ,0.372,-1.76767,,Pmmn
JVASP-9599,Ag3AsS3,FAILED_JVASP-9599.cif,1.056,1.891,mBJ,0.835,-0.13349,,R3c
JVASP-8743,TiAlFe2,FAILED_JVASP-8743.cif,0.0,0.0,mBJ,0.0,-0.49731,,Fm-3m
JVASP-33320,TiH12C2N6F6,FAILED_JVASP-33320.cif,2.451,3.018,mBJ,0.567,-1.13672,,C2/m
JVASP-8169,GaN,FAILED_JVASP-8169.cif,1.786,2.903,mBJ,1.117,-0.56774,,F-43m
JVASP-50893,NaLuO2,FAILED_JVASP-50893.cif,4.698,6.675,mBJ,1.977,-3.12413,,I4_1/amd
JVASP-8666,TlAgI2,FAILED_JVASP-8666.cif,1.833,2.432,mBJ,0.599,-0.45382,,I4/mcm
JVASP-9772,AgHgAsS3,FAILED_JVASP-9772.cif,1.161,1.837,mBJ,0.676,-0.11609,,Cc
JVASP-12923,PbCl2O6,FAILED_JVASP-12923.cif,4.575,5.847,mBJ,1.272,-0.26875,,Fdd2
JVASP-8130,SiS2,FAILED_JVASP-8130.cif,3.086,3.974,mBJ,0.888,-0.68027,,I-42d
JVASP-7713,LuZn,FAILED_JVASP-7713.cif,0.0,0.0,mBJ,0.0,-0.38589,,Pm-3m
JVASP-7745,BaAg2,FAILED_JVASP-7745.cif,0.0,0.0,mBJ,0.0,-0.35766,,P6/mmm
JVASP-8260,YVO3,FAILED_JVASP-8260.cif,0.0,0.0,mBJ,0.0,-2.91691,,Pm-3m
JVASP-45328,Na3AsSe3,FAILED_JVASP-45328.cif,2.013,3.165,mBJ,1.152,-0.85807,,P2_13
JVASP-8667,TbCl,FAILED_JVASP-8667.cif,0.0,0.0,mBJ,0.0,-1.51204,,R-3m
JVASP-54732,H2W2O7,FAILED_JVASP-54732.cif,1.605,2.504,mBJ,0.899,-1.73661,,Ima2
JVASP-8506,PbSe,FAILED_JVASP-8506.cif,0.636,1.551,mBJ,0.915,-0.50028,,I4/mmm
JVASP-8828,Zn2GeSe4,FAILED_JVASP-8828.cif,1.326,2.345,mBJ,1.019,-0.50585,,I-42m
JVASP-572,VS2,FAILED_JVASP-572.cif,0.0,0.0,mBJ,0.0,-0.96534,,P-3m1
JVASP-8038,Sr2SnO4,FAILED_JVASP-8038.cif,2.868,4.122,mBJ,1.254,-2.6056,,I4/mmm
JVASP-8304,MnS2,FAILED_JVASP-8304.cif,0.0,0.0,mBJ,0.0,-0.59533,,R-3m
JVASP-9437,MgGeO3,FAILED_JVASP-9437.cif,3.908,5.661,mBJ,1.753,-2.32606,,R-3
JVASP-8009,SrMg,FAILED_JVASP-8009.cif,0.0,0.0,mBJ,0.0,-0.09965,,Pm-3m
JVASP-51345,Ta2H,FAILED_JVASP-51345.cif,0.0,0.0,mBJ,0.0,-0.09641,,P-4m2
JVASP-45329,MgAu2F8,FAILED_JVASP-45329.cif,2.007,2.399,mBJ,0.392,-1.82039,,P2_1/c
JVASP-14176,TiCu,FAILED_JVASP-14176.cif,0.0,0.0,mBJ,0.0,-0.06073,,Pm-3m
JVASP-56905,RbSn2Br5,FAILED_JVASP-56905.cif,2.382,3.152,mBJ,0.77,-1.12317,,I4/mcm
JVASP-8435,Co3SnC,FAILED_JVASP-8435.cif,0.0,0.0,mBJ,0.0,0.0215,,Pm-3m
JVASP-9438,MgTiO3,FAILED_JVASP-9438.cif,3.515,4.016,mBJ,0.501,-3.21025,,R-3
JVASP-9993,BaYAgSe3,FAILED_JVASP-9993.cif,1.385,1.796,mBJ,0.411,-1.63537,,Cmcm
JVASP-7827,Rb3Sb,FAILED_JVASP-7827.cif,0.13,1.349,mBJ,1.219,-0.46003,,P6_3/mmc
JVASP-7746,NaSnN,FAILED_JVASP-7746.cif,1.156,2.197,mBJ,1.041,-0.19824,,P6_3mc
JVASP-9600,TlNO2,FAILED_JVASP-9600.cif,1.5,2.43,mBJ,0.93,-0.46768,,P3_121
JVASP-12570,NdH3C3O6,FAILED_JVASP-12570.cif,4.368,6.296,mBJ,1.928,-1.51469,,R3m
JVASP-52320,Ce4ThO9,FAILED_JVASP-52320.cif,0.0,0.0,mBJ,0.0,-3.77996,,I-4
JVASP-31801,TcF6,FAILED_JVASP-31801.cif,0.0,2.993,mBJ,2.993,-2.0348,,Im-3m
JVASP-8010,BaTe,FAILED_JVASP-8010.cif,0.768,1.175,mBJ,0.407,-1.74294,,Pm-3m
JVASP-50894,Ho2TiO5,FAILED_JVASP-50894.cif,2.952,3.387,mBJ,0.435,-3.60865,,C2/c
JVASP-8131,Mg2NF,FAILED_JVASP-8131.cif,2.508,4.21,mBJ,1.702,-2.03263,,I4_1/amd
JVASP-10087,N2O,FAILED_JVASP-10087.cif,3.173,4.395,mBJ,1.222,1.57325,,Pa-3
JVASP-7714,URh3,FAILED_JVASP-7714.cif,0.0,0.0,mBJ,0.0,-0.6988,,Pm-3m
JVASP-50986,NdH3O3,FAILED_JVASP-50986.cif,3.769,6.337,mBJ,2.568,-2.01231,,P6_3/m
JVASP-4403,AlNi3,FAILED_JVASP-4403.cif,0.0,0.0,mBJ,0.0,-0.43843,,Pm-3m
JVASP-52591,W2C,FAILED_JVASP-52591.cif,0.0,0.0,mBJ,0.0,-0.3842,,Pnnm
JVASP-8305,CaSnF4,FAILED_JVASP-8305.cif,4.007,4.616,mBJ,0.609,-3.24954,,P4/mmm
JVASP-8384,YNiF5,FAILED_JVASP-8384.cif,0.062,0.0,mBJ,-0.062,-2.96594,,Immm
JVASP-31802,ReF6,FAILED_JVASP-31802.cif,0.0,4.264,mBJ,4.264,-2.13058,,Im-3m
JVASP-8261,Ca3Fe2N4,FAILED_JVASP-8261.cif,0.0,0.0,mBJ,0.0,-0.77434,,Imm2
JVASP-8668,CI4,FAILED_JVASP-8668.cif,0.941,1.618,mBJ,0.677,0.55239,,I-42m
JVASP-9730,Mg2SiO4,FAILED_JVASP-9730.cif,5.326,6.85,mBJ,1.524,-3.0049,,Fd-3m
JVASP-13305,Zn2PtO4,FAILED_JVASP-13305.cif,0.88,1.352,mBJ,0.472,-1.1898,,Imma
JVASP-28898,Te2MoW3Se4S2,FAILED_JVASP-28898.cif,0.1,0.0,mBJ,-0.1,-0.44912,,P3m1
JVASP-8744,USb2O6,FAILED_JVASP-8744.cif,1.422,1.566,mBJ,0.144,-2.26805,,C2/m
JVASP-9994,Ba2ErNbO6,FAILED_JVASP-9994.cif,2.919,3.651,mBJ,0.732,-3.33401,,Fm-3m
JVASP-8554,InCuSe2,FAILED_JVASP-8554.cif,0.006,0.644,mBJ,0.638,-0.42753,,I-42d
JVASP-9773,Na2TiGeO5,FAILED_JVASP-9773.cif,3.273,3.917,mBJ,0.644,-2.39437,,P4/nmm
JVASP-8508,MnSnAu,FAILED_JVASP-8508.cif,0.0,0.052,mBJ,0.052,0.03685,,F-43m
JVASP-8012,SrC2,FAILED_JVASP-8012.cif,1.796,3.053,mBJ,1.257,-0.16067,,I4/mmm
JVASP-12958,RbCr5Se8,FAILED_JVASP-12958.cif,0.055,0.0,mBJ,-0.055,-0.64859,,C2/m
JVASP-8079,LuSb,FAILED_JVASP-8079.cif,0.0,0.0,mBJ,0.0,-1.06362,,Fm-3m
JVASP-7715,YNiSb,FAILED_JVASP-7715.cif,0.274,0.309,mBJ,0.035,-0.94452,,F-43m
JVASP-29516,CdTeMoO6,FAILED_JVASP-29516.cif,3.077,3.741,mBJ,0.664,-1.64872,,P-42_1m
JVASP-8669,NpO2F2,FAILED_JVASP-8669.cif,0.0,2.256,mBJ,2.256,-3.1546,,R-3m
JVASP-50896,Rb3SbO3,FAILED_JVASP-50896.cif,2.41,3.851,mBJ,1.441,-1.64443,,C2/m
JVASP-12609,CoCO3,FAILED_JVASP-12609.cif,0.0,0.0,mBJ,0.0,-1.16678,,R-3c
JVASP-8555,NaCl,FAILED_JVASP-8555.cif,4.343,7.504,mBJ,3.161,-1.78722,,Pm-3m
JVASP-12959,Li6FeCl8,FAILED_JVASP-12959.cif,0.0,0.0,mBJ,0.0,-1.69614,,Fm-3m
JVASP-52321,Nb3O7F,FAILED_JVASP-52321.cif,1.587,2.133,mBJ,0.546,-2.76459,,Cmmm
JVASP-45396,Al2Ge2O7,FAILED_JVASP-45396.cif,3.588,5.512,mBJ,1.924,-2.43367,,C2/c
JVASP-54734,BaH4O6,FAILED_JVASP-54734.cif,2.505,4.028,mBJ,1.523,-1.0012,,C2/c
JVASP-9135,Sb2Rh,FAILED_JVASP-9135.cif,0.0,0.0,mBJ,0.0,-0.42121,,P2_1/c
JVASP-7829,DySbPt,FAILED_JVASP-7829.cif,0.0,0.289,mBJ,0.289,-1.21921,,F-43m
JVASP-9398,MgRh2O4,FAILED_JVASP-9398.cif,1.323,1.422,mBJ,0.099,-1.46987,,Fd-3m
JVASP-8307,TeO3,FAILED_JVASP-8307.cif,0.284,1.11,mBJ,0.826,-0.14203,,P6_3/mmc
JVASP-47897,LiCoSiO4,FAILED_JVASP-47897.cif,0.001,0.0,mBJ,-0.001,-2.06048,,Cmcm
JVASP-45335,K4UO5,FAILED_JVASP-45335.cif,2.272,4.732,mBJ,2.46,-2.52173,,P-1
JVASP-50141,HoGaO3,FAILED_JVASP-50141.cif,3.898,5.52,mBJ,1.622,-2.95522,,Pnma
JVASP-19015,Sm2Sn2O7,FAILED_JVASP-19015.cif,2.886,4.343,mBJ,1.457,-2.75489,,Fd-3m
JVASP-51348,NaH2N,FAILED_JVASP-51348.cif,2.059,4.613,mBJ,2.554,-0.38577,,Fddd
JVASP-30335,MnCo5O12,FAILED_JVASP-30335.cif,0.0,0.0,mBJ,0.0,-1.07086,,C2/m
JVASP-29372,NbI2O,FAILED_JVASP-29372.cif,0.681,0.848,mBJ,0.167,-1.33465,,C2
JVASP-45397,Nd2Pt2O7,FAILED_JVASP-45397.cif,1.138,1.251,mBJ,0.113,-2.11641,,Fd-3m
JVASP-9774,Ba2ErSbO6,FAILED_JVASP-9774.cif,3.625,4.696,mBJ,1.071,-2.92775,,Fm-3m
JVASP-7830,ErSbPt,FAILED_JVASP-7830.cif,0.0,0.208,mBJ,0.208,-1.21862,,F-43m
JVASP-9162,C3N4,FAILED_JVASP-9162.cif,1.121,1.439,mBJ,0.318,1.6686,,Fd-3m
JVASP-8041,HgTe,FAILED_JVASP-8041.cif,0.522,1.089,mBJ,0.567,0.06106,,P3_121
JVASP-53618,NaHoF4,FAILED_JVASP-53618.cif,7.142,9.913,mBJ,2.771,-3.89762,,I4_1/amd
JVASP-52594,HCl,FAILED_JVASP-52594.cif,5.285,7.358,mBJ,2.073,-0.42269,,I4mm
JVASP-13307,SrY2S4,FAILED_JVASP-13307.cif,2.224,2.706,mBJ,0.482,-2.28653,,I-42d
JVASP-9692,TiAl2O5,FAILED_JVASP-9692.cif,2.932,3.456,mBJ,0.524,-3.26334,,Cmcm
JVASP-9172,KAs,FAILED_JVASP-9172.cif,0.762,1.649,mBJ,0.887,-0.53329,,P2_12_12_1
JVASP-45340,Y2S2O,FAILED_JVASP-45340.cif,2.567,3.227,mBJ,0.66,-2.8705,,P2_1/c
JVASP-8132,NbAs2,FAILED_JVASP-8132.cif,0.0,0.0,mBJ,0.0,-0.50903,,C2/m
JVASP-12571,HgHOF,FAILED_JVASP-12571.cif,1.395,2.915,mBJ,1.52,-1.00319,,P2_12_12_1
JVASP-12675,PbWO4,FAILED_JVASP-12675.cif,0.846,3.934,mBJ,3.088,-2.07358,,I4_1/a
JVASP-8556,CrCl2,FAILED_JVASP-8556.cif,0.0,0.455,mBJ,0.455,-0.95162,,Pnnm
JVASP-11749,RbCr4O8,FAILED_JVASP-11749.cif,0.0,0.0,mBJ,0.0,-2.15605,,I4/m
JVASP-45399,SrPS3,FAILED_JVASP-45399.cif,3.097,4.071,mBJ,0.974,-1.24279,,P2_1/c
JVASP-45356,Na6P4W,FAILED_JVASP-45356.cif,1.304,1.702,mBJ,0.398,-0.503,,P6_3mc
JVASP-19056,Ca3B2O6,FAILED_JVASP-19056.cif,5.27,7.337,mBJ,2.067,-3.14889,,R-3c
JVASP-47899,Li7Cr2O8,FAILED_JVASP-47899.cif,0.0,0.0,mBJ,0.0,-2.17331,,P1
JVASP-4316,B2Mo,FAILED_JVASP-4316.cif,0.0,0.0,mBJ,0.0,-0.2457,,P6/mmm
JVASP-13030,LiAuI4,FAILED_JVASP-13030.cif,0.615,1.001,mBJ,0.386,-0.46452,,P2_1/c
JVASP-45358,PrBN2,FAILED_JVASP-45358.cif,2.133,2.983,mBJ,0.85,-1.47904,,R-3c
JVASP-7832,TbMg,FAILED_JVASP-7832.cif,0.0,0.0,mBJ,0.0,-0.07437,,Pm-3m
JVASP-9995,BaNaBO3,FAILED_JVASP-9995.cif,3.945,5.721,mBJ,1.776,-2.71983,,C2/m
JVASP-45400,CaPS3,FAILED_JVASP-45400.cif,3.128,3.892,mBJ,0.764,-1.17851,,P2_1/c
JVASP-8344,YSnF5,FAILED_JVASP-8344.cif,3.156,3.998,mBJ,0.842,-3.37628,,Immm
JVASP-9440,Al2CdSe4,FAILED_JVASP-9440.cif,1.412,2.403,mBJ,0.991,-0.81699,,Fd-3m
JVASP-7933,ZrCuSi2,FAILED_JVASP-7933.cif,0.0,0.0,mBJ,0.0,-0.47386,,P4/nmm
JVASP-8170,RbTe,FAILED_JVASP-8170.cif,0.858,1.705,mBJ,0.847,-0.93501,,Pbam
JVASP-22656,HgIBr,FAILED_JVASP-22656.cif,1.889,2.936,mBJ,1.047,-0.23989,,Cmc2_1
JVASP-8557,TlI,FAILED_JVASP-8557.cif,2.204,2.874,mBJ,0.67,-0.67239,,Cmcm
JVASP-21313,ZnSi2SnO6,FAILED_JVASP-21313.cif,3.553,4.87,mBJ,1.317,-2.28441,,C2/c
JVASP-10229,Na2ZnS2,FAILED_JVASP-10229.cif,2.518,4.463,mBJ,1.945,-1.09125,,Ibam
JVASP-45360,Na8TiAs4,FAILED_JVASP-45360.cif,1.183,1.608,mBJ,0.425,-0.59888,,Fd-3m
JVASP-45407,K3Ta3B2O12,FAILED_JVASP-45407.cif,2.755,3.972,mBJ,1.217,-2.84698,,P-62m
JVASP-51349,LiCaUF8,FAILED_JVASP-51349.cif,0.375,3.539,mBJ,3.164,-3.67798,,I-4
JVASP-8559,TlBr,FAILED_JVASP-8559.cif,2.023,2.833,mBJ,0.81,-0.89023,,Pm-3m
JVASP-8043,CdS,FAILED_JVASP-8043.cif,0.306,1.654,mBJ,1.348,-0.59675,,Fm-3m
JVASP-7833,SnTe,FAILED_JVASP-7833.cif,0.107,0.482,mBJ,0.375,0.0034,,F-43m
JVASP-11132,NdS2,FAILED_JVASP-11132.cif,0.5,1.249,mBJ,0.749,-1.92635,,P2_1/c
JVASP-12961,Hg2P3Cl,FAILED_JVASP-12961.cif,1.221,1.888,mBJ,0.667,-0.10778,,C2/c
JVASP-8783,CrSbO4,FAILED_JVASP-8783.cif,0.0,0.0,mBJ,0.0,-1.77442,,Cmmm
JVASP-45361,Er2S3,FAILED_JVASP-45361.cif,1.18,1.885,mBJ,0.705,-2.2356,,P2_1/m
JVASP-45504,CaTiO3,FAILED_JVASP-45504.cif,2.347,2.821,mBJ,0.474,-3.41877,,Pnma
JVASP-50899,Ce3Th2O9,FAILED_JVASP-50899.cif,0.012,0.0,mBJ,-0.012,-3.8618,,Cm
JVASP-8345,CrN,FAILED_JVASP-8345.cif,0.0,0.0,mBJ,0.0,0.0108,,Pm-3m
JVASP-9127,Ca2Si,FAILED_JVASP-9127.cif,0.289,0.525,mBJ,0.236,-0.55229,,Pnma
JVASP-14099,UCrC2,FAILED_JVASP-14099.cif,0.0,0.0,mBJ,0.0,0.01978,,Pnma
JVASP-8561,AgI,FAILED_JVASP-8561.cif,1.284,2.849,mBJ,1.565,-0.20206,,P6_3mc
JVASP-11135,TiCdO3,FAILED_JVASP-11135.cif,2.957,3.711,mBJ,0.754,-2.45671,,R-3
JVASP-13031,Cl2O,FAILED_JVASP-13031.cif,1.002,2.468,mBJ,1.466,0.20737,,I4_1/amd
JVASP-10187,BaCdO2,FAILED_JVASP-10187.cif,1.114,2.706,mBJ,1.592,-2.01266,,Pnma
JVASP-45365,CdSeO3,FAILED_JVASP-45365.cif,3.276,5.455,mBJ,2.179,-1.08489,,Pnma
JVASP-30337,Co5BiO12,FAILED_JVASP-30337.cif,0.0,0.0,mBJ,0.0,-0.93883,,C2/m
JVASP-8134,SiB6,FAILED_JVASP-8134.cif,0.15,0.182,mBJ,0.032,0.42841,,Pm-3m
JVASP-9166,B6As,FAILED_JVASP-9166.cif,2.739,2.929,mBJ,0.19,-0.16958,,R-3m
JVASP-8265,CoO2,FAILED_JVASP-8265.cif,0.0,0.0,mBJ,0.0,-0.98533,,R-3m
JVASP-12679,TiO2,FAILED_JVASP-12679.cif,1.739,2.251,mBJ,0.512,-3.05015,,Fd-3m
JVASP-7934,TiFe2Sn,FAILED_JVASP-7934.cif,0.0,0.0,mBJ,0.0,-0.28657,,Fm-3m
JVASP-10294,RbNa2BO3,FAILED_JVASP-10294.cif,3.413,6.014,mBJ,2.601,-2.15847,,Pmmn
JVASP-8044,TbNiSb,FAILED_JVASP-8044.cif,0.294,0.323,mBJ,0.029,-0.92612,,F-43m
JVASP-8310,ZnSbF6,FAILED_JVASP-8310.cif,0.0,2.597,mBJ,2.597,-2.31676,,R-3
JVASP-9731,Y2Si2O7,FAILED_JVASP-9731.cif,4.984,6.495,mBJ,1.511,-3.43477,,C2/m
JVASP-8080,ZnSnAs2,FAILED_JVASP-8080.cif,0.002,0.803,mBJ,0.801,-0.1789,,I-42d
JVASP-8562,CuI,FAILED_JVASP-8562.cif,1.25,2.203,mBJ,0.953,-0.15141,,F-43m
JVASP-10297,K2ZrB2O6,FAILED_JVASP-10297.cif,3.575,4.58,mBJ,1.005,-2.84274,,R-3m
JVASP-9399,Nb2SnO6,FAILED_JVASP-9399.cif,1.844,2.091,mBJ,0.247,-2.48048,,C2/c
JVASP-12612,Ba2UCoO6,FAILED_JVASP-12612.cif,0.0,0.011,mBJ,0.011,-2.85734,,Fm-3m
JVASP-51350,LiHO2,FAILED_JVASP-51350.cif,0.0,0.0,mBJ,0.0,-0.6906,,C2/m
JVASP-12572,NaH2N,FAILED_JVASP-12572.cif,2.06,4.761,mBJ,2.701,-0.38581,,Fddd
JVASP-12680,TiSi2O6,FAILED_JVASP-12680.cif,3.315,3.705,mBJ,0.39,-2.99577,,C2/c
JVASP-13309,CaDy2S4,FAILED_JVASP-13309.cif,2.201,2.822,mBJ,0.621,-2.27221,,I-42d
JVASP-8172,Li3NdAs2,FAILED_JVASP-8172.cif,0.137,0.398,mBJ,0.261,-1.05315,,P-3m1
JVASP-10230,K2P3,FAILED_JVASP-10230.cif,0.696,1.22,mBJ,0.524,-0.52329,,Fmmm
JVASP-8563,LiI,FAILED_JVASP-8563.cif,4.581,5.373,mBJ,0.792,-1.28883,,Fm-3m
JVASP-10298,K2VAgS4,FAILED_JVASP-10298.cif,1.351,1.407,mBJ,0.056,-1.05578,,Fddd
JVASP-7750,NdTeF,FAILED_JVASP-7750.cif,0.579,1.032,mBJ,0.453,-2.73249,,P4/nmm
JVASP-13036,Sn2OF5,FAILED_JVASP-13036.cif,2.127,2.627,mBJ,0.5,-2.37325,,C2/m
JVASP-9400,LaGaO3,FAILED_JVASP-9400.cif,3.585,4.486,mBJ,0.901,-2.91348,,R-3c
JVASP-30280,Co3TeO8,FAILED_JVASP-30280.cif,0.0,0.0,mBJ,0.0,-1.03385,,R-3m
JVASP-8266,TiO2,FAILED_JVASP-8266.cif,2.355,2.672,mBJ,0.317,-3.08063,,R-3m
JVASP-5,TiO2,FAILED_JVASP-5.cif,1.769,2.07,mBJ,0.301,-3.24104,,P4_2/mnm
JVASP-8670,SbTeI,FAILED_JVASP-8670.cif,0.891,1.253,mBJ,0.362,-0.23882,,C2/m
JVASP-45368,HgSeO3,FAILED_JVASP-45368.cif,2.308,3.606,mBJ,1.298,-0.62534,,Pnma
JVASP-50143,Bi2TeO2,FAILED_JVASP-50143.cif,0.0,0.479,mBJ,0.479,-1.01462,,I4/mmm
JVASP-8564,KI,FAILED_JVASP-8564.cif,3.632,6.042,mBJ,2.41,-1.54113,,Pm-3m
JVASP-13037,Sb3ClO4,FAILED_JVASP-13037.cif,2.748,4.785,mBJ,2.037,-1.39994,,P2/c
JVASP-8045,TiNi2Sn,FAILED_JVASP-8045.cif,0.0,0.0,mBJ,0.0,-0.42744,,Fm-3m
JVASP-8135,Li2UO4,FAILED_JVASP-8135.cif,2.234,2.231,mBJ,-0.003,-2.73002,,I4/mmm