material_id,formula,cif_path,pbe_bandgap,hse_bandgap,gap_type,correction,formation_energy,total_energy,spacegroup
JVASP-4047,Li4NCl,FAILED_JVASP-4047.cif,1.962,2.919,mBJ,0.957,-1.0182,,R-3m
JVASP-7772,YN,FAILED_JVASP-7772.cif,2.233,3.548,mBJ,1.315,-1.66914,,F-43m
JVASP-104028,H12C5O4,FAILED_JVASP-104028.cif,5.148,7.655,mBJ,2.507,-0.46138,,I-4
JVASP-8587,TbCl3,FAILED_JVASP-8587.cif,3.581,4.83,mBJ,1.249,-2.37632,,Cmcm
JVASP-8054,HoNiSb,FAILED_JVASP-8054.cif,0.262,0.29,mBJ,0.028,-0.92842,,F-43m
JVASP-13104,KAsO2,FAILED_JVASP-13104.cif,3.735,4.914,mBJ,1.179,-1.67216,,Pbcm
JVASP-7957,AlFe3,FAILED_JVASP-7957.cif,0.0,0.0,mBJ,0.0,-0.19194,,Fm-3m
JVASP-7641,NaGaTe2,FAILED_JVASP-7641.cif,0.316,1.142,mBJ,0.826,-0.60727,,I4/mcm
JVASP-2295,GaCuTe2,FAILED_JVASP-2295.cif,0.166,1.041,mBJ,0.875,-0.26283,,I-42d
JVASP-8182,AlP,FAILED_JVASP-8182.cif,2.05,2.615,mBJ,0.565,-0.74511,,P6_3mc
JVASP-8619,SrCrO3,FAILED_JVASP-8619.cif,0.0,0.0,mBJ,0.0,-2.63438,,Pm-3m
JVASP-29547,HgB2C8N8,FAILED_JVASP-29547.cif,4.468,5.845,mBJ,1.377,0.35404,,P-3m1
JVASP-8588,RbCl,FAILED_JVASP-8588.cif,5.336,8.301,mBJ,2.965,-2.06775,,Pm-3m
JVASP-12130,TiCl3,FAILED_JVASP-12130.cif,0.0,0.0,mBJ,0.0,-1.66195,,P-31m
JVASP-8138,NaAlO2,FAILED_JVASP-8138.cif,5.309,7.308,mBJ,1.999,-2.79514,,R-3m
JVASP-29367,SnO,FAILED_JVASP-29367.cif,1.923,2.999,mBJ,1.076,-1.35418,,Pmn2_1
JVASP-18654,TbCd2,FAILED_JVASP-18654.cif,0.0,0.0,mBJ,0.0,-0.34645,,P6/mmm
JVASP-29548,Nb3TeI7,FAILED_JVASP-29548.cif,0.453,0.645,mBJ,0.192,-0.56408,,P3m1
JVASP-7773,SrHfO3,FAILED_JVASP-7773.cif,3.886,5.438,mBJ,1.552,-3.63315,,P4mm
JVASP-8805,Li2HN,FAILED_JVASP-8805.cif,3.463,3.958,mBJ,0.495,-0.54193,,Imm2
JVASP-7721,VTe2,FAILED_JVASP-7721.cif,0.0,0.0,mBJ,0.0,-0.3139,,C2/m
JVASP-8183,AlAs,FAILED_JVASP-8183.cif,1.808,2.56,mBJ,0.752,-0.56859,,P6_3mc
JVASP-8470,Ca3PbN,FAILED_JVASP-8470.cif,0.0,0.0,mBJ,0.0,0.74889,,Pm-3m
JVASP-49767,TiO,FAILED_JVASP-49767.cif,0.0,0.0,mBJ,0.0,-2.6779,,P6_3/mmc
JVASP-8275,Cu2S,FAILED_JVASP-8275.cif,0.0,0.0,mBJ,0.0,-0.1116,,I4_1/amd
JVASP-8589,BiF3,FAILED_JVASP-8589.cif,4.245,5.521,mBJ,1.276,-2.37957,,Fm-3m
JVASP-29368,Ba2DyBiO6,FAILED_JVASP-29368.cif,1.821,2.525,mBJ,0.704,-2.6414,,Fm-3m
JVASP-8315,MgVF6,FAILED_JVASP-8315.cif,0.0,4.085,mBJ,4.085,-3.25265,,R-3
JVASP-18990,TeO2,FAILED_JVASP-18990.cif,2.184,3.765,mBJ,1.581,-1.11542,,Pbca
JVASP-13365,CaPr2Te4,FAILED_JVASP-13365.cif,1.166,1.48,mBJ,0.314,-1.57231,,I-42d
JVASP-7642,KAlTe2,FAILED_JVASP-7642.cif,1.951,2.575,mBJ,0.624,-0.87983,,I4/mcm
JVASP-7809,ZrO2,FAILED_JVASP-7809.cif,3.452,4.173,mBJ,0.721,-3.64657,,Fm-3m
JVASP-1456,BaHgO2,FAILED_JVASP-1456.cif,2.414,3.396,mBJ,0.982,-1.65859,,R-3m
JVASP-2889,Rb2NbF6,FAILED_JVASP-2889.cif,0.067,6.014,mBJ,5.947,-3.11551,,P-3m1
JVASP-4385,NdGe2,FAILED_JVASP-4385.cif,0.0,0.0,mBJ,0.0,-0.61779,,I4_1/amd
JVASP-7895,LiMoO2,FAILED_JVASP-7895.cif,0.0,0.0,mBJ,0.0,-2.06244,,R-3m
JVASP-4050,CaMg2Bi2,FAILED_JVASP-4050.cif,0.634,1.139,mBJ,0.505,-0.62,,P-3m1
JVASP-8139,Sb,FAILED_JVASP-8139.cif,0.0,0.0,mBJ,0.0,0.25561,,Im-3m
JVASP-29037,Te2MoWSeS,FAILED_JVASP-29037.cif,0.0,0.0,mBJ,0.0,-0.36557,,P3m1
JVASP-8590,RbI,FAILED_JVASP-8590.cif,3.748,5.716,mBJ,1.968,-1.5891,,Pm-3m
JVASP-8184,GaP,FAILED_JVASP-8184.cif,1.263,2.175,mBJ,0.912,-0.41923,,P6_3mc
JVASP-8683,Ba2PdO3,FAILED_JVASP-8683.cif,0.018,0.087,mBJ,0.069,-2.17136,,Immm
JVASP-59873,YV2S4,FAILED_JVASP-59873.cif,0.0,0.0,mBJ,0.0,-1.24217,,I4_1/amd
JVASP-8806,ZnGa2S4,FAILED_JVASP-8806.cif,1.901,3.38,mBJ,1.479,-0.80008,,I-42m
JVASP-13288,Na2SO3,FAILED_JVASP-13288.cif,0.0,0.873,mBJ,0.873,-1.24705,,Cmcm
JVASP-4340,CdAu,FAILED_JVASP-4340.cif,0.0,0.0,mBJ,0.0,-0.17971,,Pmma
JVASP-7774,CdO,FAILED_JVASP-7774.cif,0.0,1.512,mBJ,1.512,-1.11338,,P6_3mc
JVASP-20397,ZrMn2,FAILED_JVASP-20397.cif,0.0,0.0,mBJ,0.0,-0.19356,,Fd-3m
JVASP-8591,RbBr,FAILED_JVASP-8591.cif,4.41,7.261,mBJ,2.851,-1.8638,,Pm-3m
JVASP-5086,KO2,FAILED_JVASP-5086.cif,0.0,0.0,mBJ,0.0,-0.9633,,Imma
JVASP-4792,YbPO4,FAILED_JVASP-4792.cif,0.0,0.0,mBJ,0.0,-2.69005,,I4_1/a
JVASP-8055,BaCu2S2,FAILED_JVASP-8055.cif,0.572,1.263,mBJ,0.691,-1.02758,,I4/mmm
JVASP-13367,Ca3SiO5,FAILED_JVASP-13367.cif,3.031,5.233,mBJ,2.202,-3.26283,,P6_3mc
JVASP-12884,TlSbS2,FAILED_JVASP-12884.cif,1.359,1.856,mBJ,0.497,-0.40775,,P-1
JVASP-18817,Ca3SbN,FAILED_JVASP-18817.cif,0.0,0.0,mBJ,0.0,0.51018,,Pm-3m
JVASP-7896,Cu3N,FAILED_JVASP-7896.cif,0.361,0.339,mBJ,-0.022,0.23335,,Pm-3m
JVASP-7685,Cu2HgGeS4,FAILED_JVASP-7685.cif,0.04,0.609,mBJ,0.569,-0.29777,,I-42m
JVASP-51374,Na2H6PtO6,FAILED_JVASP-51374.cif,2.577,2.948,mBJ,0.371,-1.16604,,P-3
JVASP-2301,SmSF,FAILED_JVASP-2301.cif,1.307,2.443,mBJ,1.136,-3.23131,,P4/nmm
JVASP-7643,NaAlSe2,FAILED_JVASP-7643.cif,2.439,4.078,mBJ,1.639,-1.10824,,I4/mcm
JVASP-7810,NaSe,FAILED_JVASP-7810.cif,0.493,1.829,mBJ,1.336,-0.90274,,P6_3/mmc
JVASP-50255,HoHO2,FAILED_JVASP-50255.cif,4.257,6.327,mBJ,2.07,-2.70983,,P6_3/mmc
JVASP-8185,GaAs,FAILED_JVASP-8185.cif,0.098,1.314,mBJ,1.216,-0.32068,,P6_3mc
JVASP-8097,NdSF,FAILED_JVASP-8097.cif,1.311,2.362,mBJ,1.051,-3.22541,,P4/nmm
JVASP-8227,LaVCrO6,FAILED_JVASP-8227.cif,0.0,0.0,mBJ,0.0,-2.65291,,P1
JVASP-19096,SrSeO4,FAILED_JVASP-19096.cif,3.751,5.163,mBJ,1.412,-1.79631,,P2_1/c
JVASP-8359,AlCrF5,FAILED_JVASP-8359.cif,0.0,0.002,mBJ,0.002,-3.10162,,Immm
JVASP-8141,SrZn2As2,FAILED_JVASP-8141.cif,0.218,1.113,mBJ,0.895,-0.70802,,P-3m1
JVASP-8592,Rb2TeBr6,FAILED_JVASP-8592.cif,1.925,2.393,mBJ,0.468,-1.10774,,Fm-3m
JVASP-7775,Ca3N2,FAILED_JVASP-7775.cif,1.983,3.116,mBJ,1.133,-0.94783,,P-3m1
JVASP-7897,PrCrO3,FAILED_JVASP-7897.cif,0.068,0.0,mBJ,-0.068,-2.84825,,Pm-3m
JVASP-7644,KCdF3,FAILED_JVASP-7644.cif,3.176,6.582,mBJ,3.406,-2.55535,,Pm-3m
JVASP-8277,MgV2N2,FAILED_JVASP-8277.cif,0.0,0.0,mBJ,0.0,-0.56304,,I-4m2
JVASP-8684,Mg2Al2Se5,FAILED_JVASP-8684.cif,1.307,2.284,mBJ,0.977,-1.11609,,P-3m1
JVASP-8472,NpMn2Ge2,FAILED_JVASP-8472.cif,0.0,0.0,mBJ,0.0,0.00856,,I4/mmm
JVASP-8186,ZnTe,FAILED_JVASP-8186.cif,1.079,2.258,mBJ,1.179,-0.4516,,P6_3mc
JVASP-18731,Ir3W,FAILED_JVASP-18731.cif,0.0,0.0,mBJ,0.0,-0.3528,,P6_3/mmc
JVASP-49167,SmEr3Se6,FAILED_JVASP-49167.cif,0.81,1.371,mBJ,0.561,-1.95302,,P2_1/m
JVASP-19097,Sr2Sb2O7,FAILED_JVASP-19097.cif,1.521,2.608,mBJ,1.087,-2.30195,,Imma
JVASP-4053,BaMg2Bi2,FAILED_JVASP-4053.cif,0.596,1.151,mBJ,0.555,-0.68972,,P-3m1
JVASP-52481,ScTlO3,FAILED_JVASP-52481.cif,0.979,1.892,mBJ,0.913,-2.24135,,Pnma
JVASP-7645,Lu,FAILED_JVASP-7645.cif,0.0,0.0,mBJ,0.0,0.14645,,Im-3m
JVASP-8056,KAsF6,FAILED_JVASP-8056.cif,5.095,6.767,mBJ,1.672,-2.49322,,R-3
JVASP-4056,PrIO,FAILED_JVASP-4056.cif,3.686,4.735,mBJ,1.049,-2.82846,,P4/nmm
JVASP-51748,NaH2Pd3,FAILED_JVASP-51748.cif,0.0,0.0,mBJ,0.0,-0.16115,,Cmmm
JVASP-50259,Rb2O,FAILED_JVASP-50259.cif,2.213,4.494,mBJ,2.281,-1.14756,,Pnma
JVASP-4343,S5N6,FAILED_JVASP-4343.cif,2.014,2.128,mBJ,0.114,0.64863,,C2/c
JVASP-8098,AgNO2,FAILED_JVASP-8098.cif,1.201,1.78,mBJ,0.579,-0.16117,,Imm2
JVASP-2307,K2TiF6,FAILED_JVASP-2307.cif,4.7,5.018,mBJ,0.318,-3.43255,,P-3m1
JVASP-52409,Zn2PHO5,FAILED_JVASP-52409.cif,3.528,5.572,mBJ,2.044,-1.83094,,P-1
JVASP-7899,WO3,FAILED_JVASP-7899.cif,0.253,1.565,mBJ,1.312,-2.26253,,Pm-3m
JVASP-49146,SmEr3S6,FAILED_JVASP-49146.cif,1.068,1.783,mBJ,0.715,-2.25856,,P2_1/m
JVASP-54772,Al5HO8,FAILED_JVASP-54772.cif,5.266,6.516,mBJ,1.25,-3.07149,,P6_3mc
JVASP-13373,SrPr2Se4,FAILED_JVASP-13373.cif,1.804,2.292,mBJ,0.488,-2.05933,,I-42d
JVASP-8233,YMnO3,FAILED_JVASP-8233.cif,0.0,0.0,mBJ,0.0,-2.63803,,Pm-3m
JVASP-51181,CrIrRu,FAILED_JVASP-51181.cif,0.0,0.0,mBJ,0.0,0.63552,,F-43m
JVASP-2313,KCuO2,FAILED_JVASP-2313.cif,0.86,0.885,mBJ,0.025,-1.1584,,Cmcm
JVASP-13289,Pr5AgSe8,FAILED_JVASP-13289.cif,1.462,1.773,mBJ,0.311,-1.76932,,I-4
JVASP-7722,Dy2Fe2Si2C,FAILED_JVASP-7722.cif,0.0,0.0,mBJ,0.0,-0.72294,,C2/m
JVASP-8142,SrCd2As2,FAILED_JVASP-8142.cif,0.182,1.057,mBJ,0.875,-0.6602,,P-3m1
JVASP-60667,CuTe2Cl,FAILED_JVASP-60667.cif,0.479,0.484,mBJ,0.005,-0.27708,,P2_1/c
JVASP-4636,MgAl2Se4,FAILED_JVASP-4636.cif,1.223,2.227,mBJ,1.004,-1.04883,,R-3m
JVASP-19100,Rb2CO3,FAILED_JVASP-19100.cif,3.933,6.75,mBJ,2.817,-1.8813,,P2_1/c
JVASP-32676,As2Pb4S6ICl,FAILED_JVASP-32676.cif,1.801,2.582,mBJ,0.781,-0.54095,,Pmn2_1
JVASP-19071,SrAl4O7,FAILED_JVASP-19071.cif,3.995,6.223,mBJ,2.228,-3.31838,,C2/c
JVASP-7998,UO3,FAILED_JVASP-7998.cif,0.54,0.533,mBJ,-0.007,-3.10804,,P6/mmm
JVASP-52295,BiOF,FAILED_JVASP-52295.cif,3.186,4.639,mBJ,1.453,-1.95036,,Pnma
JVASP-8057,KNbO3,FAILED_JVASP-8057.cif,1.525,2.044,mBJ,0.519,-2.67788,,P4mm
JVASP-47509,LiFePO4,FAILED_JVASP-47509.cif,0.0,0.0,mBJ,0.0,-2.0285,,I-4
JVASP-7776,BN,FAILED_JVASP-7776.cif,5.055,6.349,mBJ,1.294,-1.22688,,P4_2/mnm
JVASP-18991,Sb2O3,FAILED_JVASP-18991.cif,2.163,3.366,mBJ,1.203,-1.44706,,Pccn
JVASP-7646,YOF,FAILED_JVASP-7646.cif,5.237,6.634,mBJ,1.397,-4.13249,,P4/nmm
JVASP-13985,AlAs,FAILED_JVASP-13985.cif,0.0,0.0,mBJ,0.0,-0.28344,,P6_3/mmc
JVASP-49148,ScAgP2Se6,FAILED_JVASP-49148.cif,1.481,1.888,mBJ,0.407,-0.51957,,P-31c
JVASP-51256,CaHfZn,FAILED_JVASP-51256.cif,0.0,0.0,mBJ,0.0,0.82529,,F-43m
JVASP-13374,Sm5AgS8,FAILED_JVASP-13374.cif,1.621,2.016,mBJ,0.395,-2.00307,,I-4
JVASP-21247,Zn4B6O13,FAILED_JVASP-21247.cif,3.611,5.707,mBJ,2.096,-2.27291,,I-43m
JVASP-54723,YH3O3,FAILED_JVASP-54723.cif,3.897,6.337,mBJ,2.44,-2.05647,,P6_3
JVASP-52247,BiOF,FAILED_JVASP-52247.cif,3.415,4.718,mBJ,1.303,-1.97723,,Pnma
JVASP-2316,PrSF,FAILED_JVASP-2316.cif,1.329,2.375,mBJ,1.046,-3.22084,,P4/nmm
JVASP-12885,MgTi2O5,FAILED_JVASP-12885.cif,2.728,3.224,mBJ,0.496,-3.21978,,Cmcm
JVASP-29333,TlCuPO4,FAILED_JVASP-29333.cif,0.0,0.0,mBJ,0.0,-1.59905,,C2/c
JVASP-8099,BaTiO3,FAILED_JVASP-8099.cif,2.282,2.429,mBJ,0.147,-3.35341,,Amm2
JVASP-22612,CrCdF6,FAILED_JVASP-22612.cif,0.0,0.358,mBJ,0.358,-2.35347,,R-3
JVASP-13375,Na4C2O5,FAILED_JVASP-13375.cif,2.872,5.008,mBJ,2.136,-1.59818,,Cm
JVASP-49149,ErAgP2Se6,FAILED_JVASP-49149.cif,1.651,2.214,mBJ,0.563,-0.54348,,P-31c
JVASP-8686,AgBiS2,FAILED_JVASP-8686.cif,0.559,1.129,mBJ,0.57,-0.31315,,R-3m
JVASP-51216,KBePt,FAILED_JVASP-51216.cif,0.0,1.053,mBJ,1.053,0.59971,,F-43m
JVASP-51459,VFe2Sn,FAILED_JVASP-51459.cif,0.0,0.0,mBJ,0.0,-0.00365,,Fm-3m
JVASP-13020,Cu2PbO2,FAILED_JVASP-13020.cif,0.767,0.717,mBJ,-0.05,-0.8272,,C2/c
JVASP-82,ZrS2,FAILED_JVASP-82.cif,0.911,1.62,HSE,0.709,-1.68597,,P-3m1
JVASP-52297,LiCuS,FAILED_JVASP-52297.cif,2.004,2.498,mBJ,0.494,-0.76612,,I4/m
JVASP-13290,Al5CuS8,FAILED_JVASP-13290.cif,1.585,1.82,mBJ,0.235,-1.16023,,F-43m
JVASP-28434,MnNb2S4,FAILED_JVASP-28434.cif,0.0,0.0,mBJ,0.0,-0.59925,,P-3m1
JVASP-8143,RbSnS2,FAILED_JVASP-8143.cif,0.0,1.647,mBJ,1.647,-0.81264,,R3m
JVASP-8187,TaCuN2,FAILED_JVASP-8187.cif,0.578,1.017,mBJ,0.439,-0.68076,,R-3m
JVASP-49150,TmAgP2Se6,FAILED_JVASP-49150.cif,1.667,2.24,mBJ,0.573,-0.54342,,P-31c
JVASP-7999,Li3N,FAILED_JVASP-7999.cif,1.628,2.297,mBJ,0.669,-0.51491,,P6_3/mmc
JVASP-7686,SnHg2Se4,FAILED_JVASP-7686.cif,0.109,1.244,mBJ,1.135,-0.15448,,I-4
JVASP-52187,Li2CuF4,FAILED_JVASP-52187.cif,0.0,0.0,mBJ,0.0,-2.41768,,Cmmm
JVASP-26527,SrCrF6,FAILED_JVASP-26527.cif,0.0,0.0,mBJ,0.0,-3.20575,,R-3m
JVASP-13291,Ca4Sb2S,FAILED_JVASP-13291.cif,1.141,1.574,mBJ,0.433,-1.41238,,I-42d
JVASP-49768,NaTmO2,FAILED_JVASP-49768.cif,4.624,6.477,mBJ,1.853,-3.10029,,I4_1/amd
JVASP-59737,Ta2CuO6,FAILED_JVASP-59737.cif,0.0,0.0,mBJ,0.0,-2.47937,,P4_2/mnm
JVASP-8101,CaTiO3,FAILED_JVASP-8101.cif,1.869,2.406,mBJ,0.537,-3.34472,,Pm-3m
JVASP-7855,SnS,FAILED_JVASP-7855.cif,0.443,0.495,mBJ,0.052,-0.52092,,Fm-3m
JVASP-5089,UTe2,FAILED_JVASP-5089.cif,0.0,0.0,mBJ,0.0,-0.60526,,P4/nmm
JVASP-8235,AlCuO2,FAILED_JVASP-8235.cif,2.066,2.063,mBJ,-0.003,-2.30526,,R-3m
JVASP-8058,Na2PtC2,FAILED_JVASP-8058.cif,0.542,1.101,mBJ,0.559,-0.12158,,P-3m1
JVASP-7723,SrS3,FAILED_JVASP-7723.cif,1.065,2.287,mBJ,1.222,-1.17193,,Aea2
JVASP-13377,Ti3Zn2O8,FAILED_JVASP-13377.cif,1.892,2.439,mBJ,0.547,-2.66432,,R-3m
JVASP-8687,MgNiBi,FAILED_JVASP-8687.cif,0.0,0.0,mBJ,0.0,-0.23771,,F-43m
JVASP-48549,VO2F,FAILED_JVASP-48549.cif,2.308,2.66,mBJ,0.352,-2.53485,,Pnma
JVASP-8623,FeBiO3,FAILED_JVASP-8623.cif,0.0,0.0,mBJ,0.0,-1.31949,,R3m
JVASP-101,Fe2O3,FAILED_JVASP-101.cif,0.0,0.0,mBJ,0.0,-1.36097,,R-3c
JVASP-8144,SrSO4,FAILED_JVASP-8144.cif,4.024,7.806,mBJ,3.782,-2.09458,,F-43m
JVASP-7900,VAg3O4,FAILED_JVASP-7900.cif,0.59,2.163,mBJ,1.573,-1.18615,,I-42m
JVASP-50978,ScGaO3,FAILED_JVASP-50978.cif,4.331,5.635,mBJ,1.304,-2.85383,,Pnma
JVASP-10677,K2UTe3,FAILED_JVASP-10677.cif,0.056,0.0,mBJ,-0.056,-1.0178,,C2/m
JVASP-8761,Ag2S,FAILED_JVASP-8761.cif,0.277,1.083,mBJ,0.806,-0.04678,,P1
JVASP-8102,RbCuC2,FAILED_JVASP-8102.cif,2.029,2.455,mBJ,0.426,0.19831,,P4/mmm
JVASP-8808,LiInSe2,FAILED_JVASP-8808.cif,0.312,0.998,mBJ,0.686,-0.80398,,I4_1/amd
JVASP-8059,DyNiSb,FAILED_JVASP-8059.cif,0.278,0.306,mBJ,0.028,-0.92837,,F-43m
JVASP-8473,Mn2SnS4,FAILED_JVASP-8473.cif,0.0,0.0,mBJ,0.0,-0.47836,,Cmmm
JVASP-47518,MgCoO3,FAILED_JVASP-47518.cif,0.0,0.0,mBJ,0.0,-1.83267,,R-3
JVASP-8688,TlClO3,FAILED_JVASP-8688.cif,4.606,5.205,mBJ,0.599,-0.32047,,R3m
JVASP-7812,KZnAs,FAILED_JVASP-7812.cif,0.225,1.355,mBJ,1.13,-0.53433,,P-6m2
JVASP-8532,InAgTe2,FAILED_JVASP-8532.cif,0.03,0.972,mBJ,0.942,-0.23208,,I-42d
JVASP-8000,Zr2Au,FAILED_JVASP-8000.cif,0.0,0.0,mBJ,0.0,-0.45403,,I4/mmm
JVASP-8236,AlSnO3,FAILED_JVASP-8236.cif,0.0,0.0,mBJ,0.0,-1.11387,,Pm-3m
JVASP-51460,Ga3Fe,FAILED_JVASP-51460.cif,0.525,0.538,mBJ,0.013,-0.22965,,P4_2/mnm
JVASP-8762,CuBr,FAILED_JVASP-8762.cif,0.624,1.54,mBJ,0.916,-0.27274,,I-4m2
JVASP-51330,Y2FeB,FAILED_JVASP-51330.cif,0.0,0.0,mBJ,0.0,0.54869,,F-43m
JVASP-60670,CoRe2O8,FAILED_JVASP-60670.cif,0.0,0.034,mBJ,0.034,-1.52101,,P-3m1
JVASP-7778,Na4CO4,FAILED_JVASP-7778.cif,2.477,6.141,mBJ,3.664,-1.56675,,C2
JVASP-8145,HgO,FAILED_JVASP-8145.cif,1.307,2.013,mBJ,0.706,-0.22423,,P3_121
JVASP-13292,Sm2CdS4,FAILED_JVASP-13292.cif,1.764,2.812,mBJ,1.048,-1.72286,,I-42d
JVASP-50979,CaSm2O4,FAILED_JVASP-50979.cif,3.917,5.422,mBJ,1.505,-3.46119,,Fd-3m
JVASP-52248,Li2BiO3,FAILED_JVASP-52248.cif,0.0,0.0,mBJ,0.0,-1.65766,,C2/m
JVASP-7901,LiFeO2,FAILED_JVASP-7901.cif,0.0,0.0,mBJ,0.0,-1.76588,,R-3m
JVASP-51385,NaTeH6O6F,FAILED_JVASP-51385.cif,3.668,4.899,mBJ,1.231,-1.24633,,R3
JVASP-22534,AsF3,FAILED_JVASP-22534.cif,5.184,7.629,mBJ,2.445,-2.19574,,Pna2_1
JVASP-7647,Nb3B4,FAILED_JVASP-7647.cif,0.0,0.0,mBJ,0.0,-0.71854,,Immm
JVASP-8362,YCuO2,FAILED_JVASP-8362.cif,2.876,2.885,mBJ,0.009,-2.60561,,R-3m
JVASP-29369,AgCNO,FAILED_JVASP-29369.cif,1.371,2.704,mBJ,1.333,0.417,,Pmmn
JVASP-56755,NpSi2Cu2,FAILED_JVASP-56755.cif,0.0,0.0,mBJ,0.0,-0.30173,,I4/mmm
JVASP-32677,H14C3NF5,FAILED_JVASP-32677.cif,7.685,10.994,mBJ,3.309,-0.80039,,P-1
JVASP-51218,KSc2Co,FAILED_JVASP-51218.cif,0.0,0.0,mBJ,0.0,0.84957,,F-43m
JVASP-19406,Ca2TaAgO6,FAILED_JVASP-19406.cif,0.662,0.812,mBJ,0.15,-2.5113,,P2_1/m
JVASP-8594,K2SnCl6,FAILED_JVASP-8594.cif,2.167,3.705,mBJ,1.538,-1.52161,,Fm-3m
JVASP-51296,MnVNi,FAILED_JVASP-51296.cif,0.0,0.0,mBJ,0.0,0.52984,,F-43m
JVASP-7986,TbN,FAILED_JVASP-7986.cif,0.083,1.011,mBJ,0.928,-1.88267,,Fm-3m
JVASP-47561,Li3MnCo2O6,FAILED_JVASP-47561.cif,0.0,0.0,mBJ,0.0,-1.77699,,C2/m
JVASP-32829,PbIBr,FAILED_JVASP-32829.cif,2.533,3.297,mBJ,0.764,-0.80429,,Pnma
JVASP-8060,NaCuO2,FAILED_JVASP-8060.cif,0.564,0.634,mBJ,0.07,-1.15317,,C2/m
JVASP-8188,Si2Mo,FAILED_JVASP-8188.cif,0.14,0.416,mBJ,0.276,-0.30872,,P6_222
JVASP-8146,AlAgS2,FAILED_JVASP-8146.cif,1.84,2.914,mBJ,1.074,-0.80764,,P3m1
JVASP-7813,MgSiN2,FAILED_JVASP-7813.cif,3.702,5.135,mBJ,1.433,-1.30376,,I-42d
JVASP-7779,SmSnAu,FAILED_JVASP-7779.cif,0.136,0.173,mBJ,0.037,-0.87284,,F-43m
JVASP-14407,TmSi2,FAILED_JVASP-14407.cif,0.0,0.0,mBJ,0.0,-0.40547,,P6/mmm
JVASP-8104,CaSiO3,FAILED_JVASP-8104.cif,4.02,5.268,mBJ,1.248,-3.03476,,Pm-3m
JVASP-14096,Sb2O3,FAILED_JVASP-14096.cif,2.163,3.367,mBJ,1.204,-1.44706,,Pccn
JVASP-7992,GeO2,FAILED_JVASP-7992.cif,3.245,5.45,mBJ,2.205,-1.67667,,P3_221
JVASP-28460,Te2MoW2Se4,FAILED_JVASP-28460.cif,0.448,0.366,mBJ,-0.082,-0.39036,,Cm
JVASP-8689,UCO5,FAILED_JVASP-8689.cif,2.48,2.388,mBJ,-0.092,-2.41607,,Imm2
JVASP-50266,Y2TeO2,FAILED_JVASP-50266.cif,1.235,1.825,mBJ,0.59,-3.1675,,I4/mmm
JVASP-7902,SrS2,FAILED_JVASP-7902.cif,1.585,2.719,mBJ,1.134,-1.58309,,I4/mcm
JVASP-12186,SiAs2,FAILED_JVASP-12186.cif,0.872,1.599,mBJ,0.727,-0.0522,,Pbam
JVASP-50744,Li2AgF3,FAILED_JVASP-50744.cif,1.65,4.163,mBJ,2.513,-2.37568,,P6_3/mcm
JVASP-8595,K2TeBr6,FAILED_JVASP-8595.cif,1.894,2.367,mBJ,0.473,-1.05588,,Fm-3m
JVASP-8061,SrHfO3,FAILED_JVASP-8061.cif,3.886,5.437,mBJ,1.551,-3.63315,,Pm-3m
JVASP-18737,Li3Pb,FAILED_JVASP-18737.cif,0.0,0.0,mBJ,0.0,-0.35644,,Fm-3m
JVASP-28575,Te4MoW2S2,FAILED_JVASP-28575.cif,0.011,0.037,mBJ,0.026,-0.2666,,P-6m2
JVASP-7648,ZnS,FAILED_JVASP-7648.cif,2.112,3.616,mBJ,1.504,-0.88496,,P6_3mc
JVASP-7960,CaMnSn,FAILED_JVASP-7960.cif,0.0,0.0,mBJ,0.0,-0.23932,,P4/nmm
JVASP-8763,Ag2S,FAILED_JVASP-8763.cif,1.095,1.936,mBJ,0.841,-0.0742,,Cmcm
JVASP-7780,AlN,FAILED_JVASP-7780.cif,4.893,5.699,mBJ,0.806,-1.46344,,Fm-3m
JVASP-8105,LiAlGe,FAILED_JVASP-8105.cif,0.179,0.461,mBJ,0.282,-0.37773,,F-43m
JVASP-51134,MgTaZn,FAILED_JVASP-51134.cif,0.0,0.0,mBJ,0.0,0.60329,,F-43m
JVASP-8039,BN,FAILED_JVASP-8039.cif,3.706,5.24,mBJ,1.534,-1.19665,,Cc
JVASP-8147,Mg3As2,FAILED_JVASP-8147.cif,1.107,1.618,mBJ,0.511,-0.68479,,P-3m1
JVASP-8280,MgBiF6,FAILED_JVASP-8280.cif,0.0,1.825,mBJ,1.825,-2.70326,,R-3
JVASP-8533,NaO3,FAILED_JVASP-8533.cif,0.477,1.618,mBJ,1.141,-0.67129,,Imm2
JVASP-27516,Na3SbO3,FAILED_JVASP-27516.cif,3.162,4.977,mBJ,1.815,-1.72121,,I-43m
JVASP-8031,CdSiAs2,FAILED_JVASP-8031.cif,0.363,1.327,mBJ,0.964,-0.09416,,I-42d
JVASP-43925,Ge2N2O,FAILED_JVASP-43925.cif,2.533,4.111,mBJ,1.578,-0.54733,,Cc
JVASP-8690,MgC2,FAILED_JVASP-8690.cif,2.75,3.395,mBJ,0.645,0.2513,,P4_2/mnm
JVASP-22578,SiO2,FAILED_JVASP-22578.cif,5.703,8.402,mBJ,2.699,-2.87833,,Cc
JVASP-8596,NaBeH3,FAILED_JVASP-8596.cif,1.667,3.112,mBJ,1.445,-0.14023,,Pm-3m
JVASP-55520,CaPbO3,FAILED_JVASP-55520.cif,0.965,1.62,mBJ,0.655,-1.95181,,Pnma
JVASP-50268,ZrO2,FAILED_JVASP-50268.cif,3.428,4.382,mBJ,0.954,-3.67397,,Pnma
JVASP-7814,MgCN2,FAILED_JVASP-7814.cif,4.004,5.396,mBJ,1.392,-0.22245,,I-42d
JVASP-8062,BaCO3,FAILED_JVASP-8062.cif,4.828,6.621,mBJ,1.793,-2.36967,,R3m
JVASP-27517,NaNb6O15F,FAILED_JVASP-27517.cif,1.597,2.167,mBJ,0.57,-2.67911,,Amm2
JVASP-54773,HoHO2,FAILED_JVASP-54773.cif,4.182,6.267,mBJ,2.085,-2.83583,,P2_1
JVASP-51763,CaH2O2,FAILED_JVASP-51763.cif,4.711,6.964,mBJ,2.253,-1.97431,,P2_1/c
JVASP-11363,RbPt2Se3,FAILED_JVASP-11363.cif,1.126,1.466,mBJ,0.34,-0.64695,,R-3m
JVASP-2319,BaPdS2,FAILED_JVASP-2319.cif,0.143,0.06,mBJ,-0.083,-1.32916,,Cmcm
JVASP-8148,RbO,FAILED_JVASP-8148.cif,2.177,4.277,mBJ,2.1,-1.20671,,Immm
JVASP-51,MoS2,FAILED_JVASP-51.cif,0.955,1.293,mBJ,0.338,-0.9615,,R3m
JVASP-7687,CdCu2GeSe4,FAILED_JVASP-7687.cif,0.0,0.568,mBJ,0.568,-0.32962,,I-42m
JVASP-8319,CaTiF6,FAILED_JVASP-8319.cif,4.761,5.05,mBJ,0.289,-3.77588,,R-3
JVASP-96,ZnSe,FAILED_JVASP-96.cif,1.224,2.63,mBJ,1.406,-0.71802,,F-43m
JVASP-50745,LiSbTe3O12,FAILED_JVASP-50745.cif,1.345,1.889,mBJ,0.544,-1.1493,,P1
JVASP-51260,TlBCl2,FAILED_JVASP-51260.cif,0.799,1.216,mBJ,0.417,0.58382,,F-43m
JVASP-58467,YMn2O4,FAILED_JVASP-58467.cif,0.0,0.0,mBJ,0.0,-2.28989,,R-3m
JVASP-51183,ScTl2W,FAILED_JVASP-51183.cif,0.0,0.0,mBJ,0.0,0.43522,,Fm-3m
JVASP-8189,Si2W,FAILED_JVASP-8189.cif,0.231,0.339,mBJ,0.108,-0.11667,,P6_222
JVASP-8237,CaMoF6,FAILED_JVASP-8237.cif,0.0,0.0,mBJ,0.0,-3.13702,,R-3
JVASP-7903,P3N5,FAILED_JVASP-7903.cif,2.806,3.979,mBJ,1.173,-0.24338,,Imm2
JVASP-29465,Cu2H3ClO3,FAILED_JVASP-29465.cif,0.079,0.0,mBJ,-0.079,-0.79884,,P2_1/m
JVASP-7649,BaC2,FAILED_JVASP-7649.cif,2.221,3.456,mBJ,1.235,-0.08382,,C2/c
JVASP-11366,Rb3AlO3,FAILED_JVASP-11366.cif,3.054,5.02,mBJ,1.966,-2.16279,,C2/m
JVASP-50981,NaLuO2,FAILED_JVASP-50981.cif,4.573,6.773,mBJ,2.2,-3.14167,,C2/c
JVASP-32735,InI3,FAILED_JVASP-32735.cif,1.878,2.83,mBJ,0.952,-0.45947,,P2_1/c
JVASP-7688,CeS,FAILED_JVASP-7688.cif,0.0,0.0,mBJ,0.0,-2.16913,,Fm-3m
JVASP-8106,AgCNO,FAILED_JVASP-8106.cif,2.008,3.217,mBJ,1.209,0.36136,,Cmcm
JVASP-8655,KAuO2,FAILED_JVASP-8655.cif,1.181,1.728,mBJ,0.547,-0.95238,,Pmmm
JVASP-51136,NaTaNi,FAILED_JVASP-51136.cif,0.0,0.0,mBJ,0.0,1.28617,,F-43m