material_id,formula,cif_path,pbe_bandgap,hse_bandgap,gap_type,correction,formation_energy,total_energy,spacegroup
JVASP-57054,KNaTiO3,FAILED_JVASP-57054.cif,3.562,4.191,mBJ,0.629,-2.66208,,C2/c
JVASP-36474,Ca3BiP,FAILED_JVASP-36474.cif,0.274,0.842,mBJ,0.568,-1.06674,,Pm-3m
JVASP-51488,Ca3SnN,FAILED_JVASP-51488.cif,0.0,0.0,mBJ,0.0,0.66769,,Pm-3m
JVASP-30605,SnF4,FAILED_JVASP-30605.cif,3.367,5.641,mBJ,2.274,-2.38721,,C2/c
JVASP-53054,Ca2SiO4,FAILED_JVASP-53054.cif,4.276,6.916,mBJ,2.64,-3.19982,,Cc
JVASP-35896,HoCo3Cu2,FAILED_JVASP-35896.cif,0.0,0.0,mBJ,0.0,-0.1371,,P6/mmm
JVASP-22740,TmAl4Ni,FAILED_JVASP-22740.cif,0.0,0.0,mBJ,0.0,-0.56642,,Cmcm
JVASP-41872,Sc2OsPt,FAILED_JVASP-41872.cif,0.0,0.0,mBJ,0.0,-0.94617,,Fm-3m
JVASP-35454,Pr2AlNO3,FAILED_JVASP-35454.cif,1.034,2.086,mBJ,1.052,-2.97713,,I4mm
JVASP-41823,Er2IrRh,FAILED_JVASP-41823.cif,0.0,0.0,mBJ,0.0,-1.0226,,Fm-3m
JVASP-21390,MgAlPO5,FAILED_JVASP-21390.cif,5.271,7.804,mBJ,2.533,-2.89618,,P2_1/c
JVASP-36475,Sr3As2,FAILED_JVASP-36475.cif,0.0,0.521,mBJ,0.521,-0.78745,,Pm-3m
JVASP-22741,NpAl4,FAILED_JVASP-22741.cif,0.0,0.0,mBJ,0.0,-0.03737,,Imma
JVASP-56258,PmMg,FAILED_JVASP-56258.cif,0.0,0.0,mBJ,0.0,-0.10153,,Pm-3m
JVASP-36169,Co3W,FAILED_JVASP-36169.cif,0.0,0.0,mBJ,0.0,-0.21456,,Pm-3m
JVASP-58032,MgCuO2,FAILED_JVASP-58032.cif,0.0,0.0,mBJ,0.0,-1.64413,,P1
JVASP-42014,Sr2TlCd,FAILED_JVASP-42014.cif,0.0,0.0,mBJ,0.0,-0.46072,,Fm-3m
JVASP-35723,KTiS2,FAILED_JVASP-35723.cif,0.0,1.249,mBJ,1.249,-1.49915,,R3m
JVASP-35541,NbTl3Se4,FAILED_JVASP-35541.cif,1.986,2.064,mBJ,0.078,-0.60186,,I-43m
JVASP-22742,Al6Re,FAILED_JVASP-22742.cif,0.0,0.0,mBJ,0.0,-0.22908,,Cmcm
JVASP-36662,ZrIr,FAILED_JVASP-36662.cif,0.0,0.0,mBJ,0.0,-0.86689,,P4/mmm
JVASP-36510,Ca3BiSb,FAILED_JVASP-36510.cif,0.0,0.276,mBJ,0.276,-0.67078,,Pm-3m
JVASP-30647,TiZnBi2O6,FAILED_JVASP-30647.cif,1.689,2.307,mBJ,0.618,-1.94731,,P4mm
JVASP-35843,CeTeCl,FAILED_JVASP-35843.cif,0.0,0.0,mBJ,0.0,-1.8642,,P4/nmm
JVASP-57789,SnMo6S8,FAILED_JVASP-57789.cif,0.0,0.0,mBJ,0.0,-0.73482,,R-3
JVASP-35756,TmSbPd,FAILED_JVASP-35756.cif,0.405,0.598,mBJ,0.193,-0.68811,,F-43m
JVASP-36170,Cr3Ni,FAILED_JVASP-36170.cif,0.0,0.0,mBJ,0.0,0.18093,,Fm-3m
JVASP-56260,NpFe2Si2,FAILED_JVASP-56260.cif,0.0,0.0,mBJ,0.0,-0.3789,,I4/mmm
JVASP-35670,TiAg,FAILED_JVASP-35670.cif,0.0,0.0,mBJ,0.0,-0.07419,,P4/nmm
JVASP-29888,ZrNCl,FAILED_JVASP-29888.cif,3.018,3.397,mBJ,0.379,-1.72231,,P-3m1
JVASP-22550,CaSnF6,FAILED_JVASP-22550.cif,5.488,8.064,mBJ,2.576,-3.17068,,R-3
JVASP-22919,Mg4Ta2O9,FAILED_JVASP-22919.cif,4.264,5.672,mBJ,1.408,-3.09031,,P-3c1
JVASP-41668,Ti2NiMo,FAILED_JVASP-41668.cif,0.0,0.0,mBJ,0.0,-0.30586,,Fm-3m
JVASP-53067,Dy2Zr2O7,FAILED_JVASP-53067.cif,2.895,4.0,mBJ,1.105,-3.61889,,Pmma
JVASP-52734,Cr2HO4,FAILED_JVASP-52734.cif,0.0,0.0,mBJ,0.0,-1.87165,,P2/m
JVASP-41873,Sc2OsPd,FAILED_JVASP-41873.cif,0.0,0.0,mBJ,0.0,-0.78289,,Fm-3m
JVASP-56261,Ge3As4,FAILED_JVASP-56261.cif,0.192,0.759,mBJ,0.567,0.00991,,P-43m
JVASP-36511,Ba3AsN,FAILED_JVASP-36511.cif,0.0,0.528,mBJ,0.528,-0.82736,,Pm-3m
JVASP-35500,VCr2Te4,FAILED_JVASP-35500.cif,0.0,0.0,mBJ,0.0,-0.19113,,C2/m
JVASP-35455,V2CrTe4,FAILED_JVASP-35455.cif,0.0,0.0,mBJ,0.0,-0.24074,,C2/m
JVASP-29808,MnH2O2,FAILED_JVASP-29808.cif,0.0,0.0,mBJ,0.0,-0.87504,,C2/m
JVASP-35042,Re2N,FAILED_JVASP-35042.cif,0.0,0.0,mBJ,0.0,-0.04159,,P6_3/mmc
JVASP-35671,Tc3N,FAILED_JVASP-35671.cif,0.0,0.0,mBJ,0.0,-0.19624,,P-6m2
JVASP-35127,Ca2SiO4,FAILED_JVASP-35127.cif,4.499,6.507,mBJ,2.008,-3.1673,,P-3m1
JVASP-36477,Sr3SbAs,FAILED_JVASP-36477.cif,0.294,0.891,mBJ,0.597,-0.94446,,Pm-3m
JVASP-51513,ZrInNi4,FAILED_JVASP-51513.cif,0.0,0.0,mBJ,0.0,-0.39039,,F-43m
JVASP-35128,Ca2SiO4,FAILED_JVASP-35128.cif,4.515,6.39,mBJ,1.875,-3.26459,,Cmcm
JVASP-57157,V2FeS4,FAILED_JVASP-57157.cif,0.0,0.0,mBJ,0.0,-0.91948,,C2/m
JVASP-35724,HoGa,FAILED_JVASP-35724.cif,0.0,0.0,mBJ,0.0,-0.63807,,Cmcm
JVASP-54829,NaLi2N,FAILED_JVASP-54829.cif,0.0,0.0,mBJ,0.0,0.99554,,P6/mmm
JVASP-42065,PaInPt2,FAILED_JVASP-42065.cif,0.0,0.0,mBJ,0.0,-0.82531,,Fm-3m
JVASP-35759,TiPd2,FAILED_JVASP-35759.cif,0.0,0.0,mBJ,0.0,-0.63414,,I4/mmm
JVASP-35672,SrCaO2,FAILED_JVASP-35672.cif,3.338,4.888,mBJ,1.55,-3.09564,,P4/mmm
JVASP-42017,Pm2ZnIr,FAILED_JVASP-42017.cif,0.0,0.0,mBJ,0.0,-0.59291,,Fm-3m
JVASP-35043,RbMnBi,FAILED_JVASP-35043.cif,0.0,0.0,mBJ,0.0,0.03442,,P4/nmm
JVASP-58425,U2Cr3Si,FAILED_JVASP-58425.cif,0.0,0.0,mBJ,0.0,-0.07718,,P6_3/mmc
JVASP-41777,HoAlAg2,FAILED_JVASP-41777.cif,0.0,0.0,mBJ,0.0,-0.36138,,Fm-3m
JVASP-41970,BaNaH3Pd,FAILED_JVASP-41970.cif,1.587,2.02,mBJ,0.433,-0.46442,,P6_3/mmc
JVASP-41829,Ho2TlAg,FAILED_JVASP-41829.cif,0.0,0.0,mBJ,0.0,-0.36547,,Fm-3m
JVASP-52735,TiVO4,FAILED_JVASP-52735.cif,0.0,1.557,mBJ,1.557,-2.86467,,Cmmm
JVASP-22551,N2O5,FAILED_JVASP-22551.cif,0.932,1.886,mBJ,0.954,-0.09969,,P6_3/mmc
JVASP-29810,AlH3O3,FAILED_JVASP-29810.cif,5.24,7.151,mBJ,1.911,-1.82873,,P1
JVASP-36512,Ca3Bi2,FAILED_JVASP-36512.cif,0.0,0.028,mBJ,0.028,-0.52995,,Pm-3m
JVASP-22967,Pr2SiTeO4,FAILED_JVASP-22967.cif,2.146,2.649,mBJ,0.503,-3.05685,,Pbcm
JVASP-35725,GaFeNi2,FAILED_JVASP-35725.cif,0.0,0.0,mBJ,0.0,-0.1763,,Fm-3m
JVASP-41874,Sc2TlAg,FAILED_JVASP-41874.cif,0.0,0.0,mBJ,0.0,-0.32519,,Fm-3m
JVASP-40850,PmMgHg2,FAILED_JVASP-40850.cif,0.0,0.0,mBJ,0.0,-0.37457,,Fm-3m
JVASP-35760,TiAu2,FAILED_JVASP-35760.cif,0.0,0.0,mBJ,0.0,-0.45566,,I4/mmm
JVASP-51519,UGeS,FAILED_JVASP-51519.cif,0.0,0.0,mBJ,0.0,-0.58673,,P4/nmm
JVASP-39753,TaZnRh2,FAILED_JVASP-39753.cif,0.0,0.0,mBJ,0.0,-0.53063,,Fm-3m
JVASP-36478,Ba3SbAs,FAILED_JVASP-36478.cif,0.298,0.704,mBJ,0.406,-0.86458,,Pm-3m
JVASP-41915,LiDy2Tc,FAILED_JVASP-41915.cif,0.0,0.0,mBJ,0.0,-0.07493,,Fm-3m
JVASP-35673,Li2MgSi,FAILED_JVASP-35673.cif,0.202,0.545,mBJ,0.343,-0.27589,,F-43m
JVASP-35089,TbGeAu,FAILED_JVASP-35089.cif,0.0,0.0,mBJ,0.0,-0.85416,,P6_3mc
JVASP-35129,Ca6Ge2O,FAILED_JVASP-35129.cif,0.302,0.482,mBJ,0.18,-1.13649,,Fm-3m
JVASP-22552,NbSbRu,FAILED_JVASP-22552.cif,0.369,0.42,mBJ,0.051,-0.36973,,F-43m
JVASP-57159,KAlF4,FAILED_JVASP-57159.cif,7.298,10.728,mBJ,3.43,-3.56582,,P2_1/m
JVASP-29571,Bi2Te5Pb2,FAILED_JVASP-29571.cif,0.03,0.023,mBJ,-0.007,-0.25677,,P-3m1
JVASP-56337,K2P3,FAILED_JVASP-56337.cif,1.054,1.474,mBJ,0.42,-0.52371,,Fddd
JVASP-41830,Ho2TlCd,FAILED_JVASP-41830.cif,0.0,0.0,mBJ,0.0,-0.35294,,Fm-3m
JVASP-56453,ThBr4,FAILED_JVASP-56453.cif,3.175,3.271,mBJ,0.096,-1.81701,,I4_1/a
JVASP-22669,WCl6,FAILED_JVASP-22669.cif,0.476,2.265,mBJ,1.789,-0.8891,,R-3
JVASP-35501,Ti2CrTe4,FAILED_JVASP-35501.cif,0.0,0.0,mBJ,0.0,-0.54165,,C2/m
JVASP-22926,Tb2Ba4Cd3S10,FAILED_JVASP-22926.cif,1.862,2.694,mBJ,0.832,-1.7807,,Cmc2_1
JVASP-56338,UBi2,FAILED_JVASP-56338.cif,0.0,0.0,mBJ,0.0,0.01021,,P4/nmm
JVASP-42019,Sr2LiTl,FAILED_JVASP-42019.cif,0.0,0.0,mBJ,0.0,-0.2751,,Fm-3m
JVASP-13904,AgClO2,FAILED_JVASP-13904.cif,0.783,2.299,mBJ,1.516,0.07514,,Pcca
JVASP-56455,TbCl3,FAILED_JVASP-56455.cif,4.442,5.921,mBJ,1.479,-2.33072,,P4_2/mnm
JVASP-35542,GeRu,FAILED_JVASP-35542.cif,0.126,0.104,mBJ,-0.022,-0.19969,,P2_13
JVASP-22972,NaMg4As3O12,FAILED_JVASP-22972.cif,3.484,5.166,mBJ,1.682,-2.17318,,I-42d
JVASP-29572,AgBiP2Se6,FAILED_JVASP-29572.cif,1.18,2.115,mBJ,0.935,-0.16487,,R-3
JVASP-41780,Ba2AsAu,FAILED_JVASP-41780.cif,0.563,0.92,mBJ,0.357,-1.077,,Fm-3m
JVASP-36513,Ba3Bi2,FAILED_JVASP-36513.cif,0.0,0.079,mBJ,0.079,-0.53985,,Pm-3m
JVASP-12103,AuBr,FAILED_JVASP-12103.cif,1.504,2.646,mBJ,1.142,-0.08848,,P4_2/ncm
JVASP-35761,Ti2Rh,FAILED_JVASP-35761.cif,0.0,0.0,mBJ,0.0,-0.6348,,I4/mmm
JVASP-39789,LuMgAu2,FAILED_JVASP-39789.cif,0.0,0.0,mBJ,0.0,-0.84549,,Fm-3m
JVASP-35819,Tm3AlN,FAILED_JVASP-35819.cif,0.0,0.0,mBJ,0.0,-1.04873,,Pm-3m
JVASP-23355,LuMnSi,FAILED_JVASP-23355.cif,0.0,0.0,mBJ,0.0,-0.44681,,Pnma
JVASP-35675,Ti2InNi,FAILED_JVASP-35675.cif,0.0,0.0,mBJ,0.0,-0.07648,,Fm-3m
JVASP-36479,Ba3BiAs,FAILED_JVASP-36479.cif,0.0,0.656,mBJ,0.656,-0.87049,,Pm-3m
JVASP-30656,MgSnO2,FAILED_JVASP-30656.cif,1.521,2.389,mBJ,0.868,-1.99525,,P-1
JVASP-29573,TlCuPSe3,FAILED_JVASP-29573.cif,1.528,2.12,mBJ,0.592,-0.2369,,P2_1/c
JVASP-36108,BaO2,FAILED_JVASP-36108.cif,2.07,3.265,mBJ,1.195,-1.95532,,Cmmm
JVASP-33032,BH3,FAILED_JVASP-33032.cif,5.438,8.108,mBJ,2.67,-0.03803,,P2_1/c
JVASP-41832,Cu2PdAu,FAILED_JVASP-41832.cif,0.0,0.0,mBJ,0.0,-0.11737,,Fm-3m
JVASP-30658,MgSb4O8,FAILED_JVASP-30658.cif,1.714,2.708,mBJ,0.994,-1.60502,,P1
JVASP-35132,CaAl2SiO6,FAILED_JVASP-35132.cif,4.915,6.537,mBJ,1.622,-3.26818,,C2
JVASP-58197,CaMn4O6,FAILED_JVASP-58197.cif,0.0,0.0,mBJ,0.0,-1.91766,,Cmcm
JVASP-57441,CuTeO3,FAILED_JVASP-57441.cif,0.0,0.026,mBJ,0.026,-0.91733,,P2_1/c
JVASP-40852,Er2CuPt,FAILED_JVASP-40852.cif,0.0,0.0,mBJ,0.0,-0.863,,Fm-3m
JVASP-35727,Ga2BiAs,FAILED_JVASP-35727.cif,0.0,0.0,mBJ,0.0,-0.09619,,P-4m2
JVASP-41977,AlVOs2,FAILED_JVASP-41977.cif,0.0,0.0,mBJ,0.0,-0.49682,,Fm-3m
JVASP-22554,FeCuO2,FAILED_JVASP-22554.cif,0.0,0.0,mBJ,0.0,-1.06658,,R-3m
JVASP-36109,BiB,FAILED_JVASP-36109.cif,0.176,0.403,mBJ,0.227,0.80918,,F-43m
JVASP-35133,CaAl2SiO6,FAILED_JVASP-35133.cif,5.007,6.663,mBJ,1.656,-3.23392,,Cc
JVASP-56834,Ho7FeI12,FAILED_JVASP-56834.cif,0.0,0.0,mBJ,0.0,-1.22286,,R-3
JVASP-22974,Sr5As3O12F,FAILED_JVASP-22974.cif,4.172,6.01,mBJ,1.838,-2.59388,,P6_3/m
JVASP-23478,Ta3PbS6,FAILED_JVASP-23478.cif,0.0,0.0,mBJ,0.0,-1.11636,,P6_3/mcm
JVASP-35012,NdTeCl,FAILED_JVASP-35012.cif,0.501,0.89,mBJ,0.389,-1.93985,,P4/nmm
JVASP-36514,Ba3SbP,FAILED_JVASP-36514.cif,0.444,0.767,mBJ,0.323,-0.91298,,Pm-3m
JVASP-35597,LiNbSe2,FAILED_JVASP-35597.cif,0.672,0.832,mBJ,0.16,-1.1235,,P6_3/mmc
JVASP-42021,SmAlAg2,FAILED_JVASP-42021.cif,0.0,0.0,mBJ,0.0,-0.3422,,Fm-3m
JVASP-57796,Na3AlF6,FAILED_JVASP-57796.cif,6.258,11.01,mBJ,4.752,-3.26014,,Immm
JVASP-41833,Sc2ZnAu,FAILED_JVASP-41833.cif,0.0,0.0,mBJ,0.0,-0.64122,,Fm-3m
JVASP-36480,Sr3BiAs,FAILED_JVASP-36480.cif,0.0,0.385,mBJ,0.385,-0.94212,,Pm-3m
JVASP-29574,BiI3,FAILED_JVASP-29574.cif,2.29,2.772,mBJ,0.482,-0.45744,,P-31m
JVASP-36110,CdC,FAILED_JVASP-36110.cif,0.0,0.0,mBJ,0.0,2.03892,,F-43m
JVASP-42070,PmAlAu2,FAILED_JVASP-42070.cif,0.0,0.0,mBJ,0.0,-0.71334,,Fm-3m
JVASP-41877,Sc2IrRu,FAILED_JVASP-41877.cif,0.0,0.0,mBJ,0.0,-0.91679,,Fm-3m
JVASP-35502,GaAsPd5,FAILED_JVASP-35502.cif,0.0,0.0,mBJ,0.0,-0.43975,,P4/mmm
JVASP-22976,CaTiGeO5,FAILED_JVASP-22976.cif,2.783,3.242,mBJ,0.459,-2.8127,,P2_1/c
JVASP-40939,Pm2MgAl,FAILED_JVASP-40939.cif,0.0,0.0,mBJ,0.0,-0.27684,,Fm-3m
JVASP-57797,SrB4O7,FAILED_JVASP-57797.cif,7.352,8.893,mBJ,1.541,-2.81012,,Pmn2_1
JVASP-40853,PmMgRh2,FAILED_JVASP-40853.cif,0.0,0.0,mBJ,0.0,-0.62447,,Fm-3m
JVASP-35680,PbS,FAILED_JVASP-35680.cif,0.125,0.643,mBJ,0.518,-0.57486,,P6_3/mmc
JVASP-56835,Rb2UBr6,FAILED_JVASP-56835.cif,0.0,0.0,mBJ,0.0,-1.64541,,Fm-3m
JVASP-36111,CoMo,FAILED_JVASP-36111.cif,0.0,0.0,mBJ,0.0,0.27986,,Pm-3m
JVASP-22977,K2Hg3Ge2S8,FAILED_JVASP-22977.cif,1.265,2.344,mBJ,1.079,-0.53245,,Aea2
JVASP-42114,PmCdAu2,FAILED_JVASP-42114.cif,0.0,0.0,mBJ,0.0,-0.70631,,Fm-3m
JVASP-36515,Ca3SbAs,FAILED_JVASP-36515.cif,0.0,0.408,mBJ,0.408,-0.49751,,Pm-3m
JVASP-35728,ErGa,FAILED_JVASP-35728.cif,0.0,0.0,mBJ,0.0,-0.63738,,Cmcm
JVASP-35765,ScAg2,FAILED_JVASP-35765.cif,0.0,0.0,mBJ,0.0,-0.3375,,I4/mmm
JVASP-5146,InAgP2S6,FAILED_JVASP-5146.cif,0.979,1.944,mBJ,0.965,-0.35684,,P-31c
JVASP-57163,Y2Hf2O7,FAILED_JVASP-57163.cif,3.451,5.173,mBJ,1.722,-3.83477,,Fd-3m
JVASP-56525,SrAlSiH,FAILED_JVASP-56525.cif,0.71,1.032,mBJ,0.322,-0.53266,,P3m1
JVASP-33004,H5NO,FAILED_JVASP-33004.cif,4.82,8.521,mBJ,3.701,-0.59968,,P2_12_12_1
JVASP-41834,Sc2ZnPt,FAILED_JVASP-41834.cif,0.0,0.0,mBJ,0.0,-0.88711,,Fm-3m
JVASP-58229,CaMn4S8,FAILED_JVASP-58229.cif,0.0,0.0,mBJ,0.0,-0.86839,,R-3m
JVASP-36483,Ba3Sb2,FAILED_JVASP-36483.cif,0.076,0.534,mBJ,0.458,-0.62953,,Pm-3m
JVASP-35824,YbH3Pd,FAILED_JVASP-35824.cif,0.0,0.0,mBJ,0.0,-0.58621,,Pm-3m
JVASP-41878,Sc2PdRu,FAILED_JVASP-41878.cif,0.0,0.0,mBJ,0.0,-0.82901,,Fm-3m
JVASP-42072,PmAlCu2,FAILED_JVASP-42072.cif,0.0,0.0,mBJ,0.0,-0.33558,,Fm-3m
JVASP-41918,Be2PtRh,FAILED_JVASP-41918.cif,0.0,0.0,mBJ,0.0,-0.75455,,Fm-3m
JVASP-35364,CeGaGe,FAILED_JVASP-35364.cif,0.0,0.0,mBJ,0.0,-0.6102,,I4_1md
JVASP-20210,SiIr3,FAILED_JVASP-20210.cif,0.0,0.0,mBJ,0.0,-0.31733,,I4/mcm
JVASP-35729,CrGaP2,FAILED_JVASP-35729.cif,0.0,0.0,mBJ,0.0,-0.10248,,P-4m2
JVASP-36112,KNdS2,FAILED_JVASP-36112.cif,2.297,3.315,mBJ,1.018,-2.01861,,R-3m
JVASP-32768,ZrCl4,FAILED_JVASP-32768.cif,3.495,3.853,mBJ,0.358,-1.85784,,P2/c
JVASP-35767,PaC2,FAILED_JVASP-35767.cif,0.0,0.0,mBJ,0.0,-0.37937,,I4/mmm
JVASP-12010,MoO3,FAILED_JVASP-12010.cif,1.92,2.464,mBJ,0.544,-2.08618,,Pnma
JVASP-41982,AlZnIr2,FAILED_JVASP-41982.cif,0.0,0.0,mBJ,0.0,-0.60582,,Fm-3m
JVASP-35825,YbNiH3,FAILED_JVASP-35825.cif,0.0,0.0,mBJ,0.0,-0.61563,,Pm-3m
JVASP-23369,CO2,FAILED_JVASP-23369.cif,6.931,9.685,mBJ,2.754,-1.31361,,Pa-3
JVASP-35459,TiV2Te4,FAILED_JVASP-35459.cif,0.0,0.0,mBJ,0.0,-0.43453,,C2/m
JVASP-36113,CeS,FAILED_JVASP-36113.cif,0.0,0.0,mBJ,0.0,-1.82599,,Pm-3m
JVASP-58394,SiO2,FAILED_JVASP-58394.cif,5.317,8.47,mBJ,3.153,-2.84848,,Fd-3m
JVASP-40855,NaPmHg2,FAILED_JVASP-40855.cif,0.0,0.0,mBJ,0.0,-0.29584,,Fm-3m
JVASP-41794,AlFeRh2,FAILED_JVASP-41794.cif,0.0,0.0,mBJ,0.0,-0.56183,,Fm-3m
JVASP-35503,Ti2CoSe4,FAILED_JVASP-35503.cif,0.0,0.0,mBJ,0.0,-0.94262,,C2/m
JVASP-35730,CrCo2Bi,FAILED_JVASP-35730.cif,0.0,0.0,mBJ,0.0,0.44078,,Fm-3m
JVASP-30659,ZnSb4O8,FAILED_JVASP-30659.cif,1.485,2.453,mBJ,0.968,-1.38737,,Cm
JVASP-36484,Sr3Sb2,FAILED_JVASP-36484.cif,0.026,0.537,mBJ,0.511,-0.66436,,Pm-3m
JVASP-35682,NbCo3,FAILED_JVASP-35682.cif,0.0,0.0,mBJ,0.0,-0.17798,,Pm-3m
JVASP-35854,DyTe2,FAILED_JVASP-35854.cif,0.0,0.0,mBJ,0.0,-1.18734,,P4/nmm
JVASP-35768,LuAg2,FAILED_JVASP-35768.cif,0.0,0.0,mBJ,0.0,-0.37945,,I4/mmm
JVASP-42075,LiPm2Pt,FAILED_JVASP-42075.cif,0.0,0.0,mBJ,0.0,-0.57951,,Fm-3m
JVASP-20211,NbAl3,FAILED_JVASP-20211.cif,0.0,0.0,mBJ,0.0,-0.42786,,I4/mmm
JVASP-35219,Cd4SF6,FAILED_JVASP-35219.cif,0.833,3.564,mBJ,2.731,-1.9938,,R-3m
JVASP-41836,ScZn3,FAILED_JVASP-41836.cif,0.0,0.0,mBJ,0.0,-0.33478,,P6_3/mmc
JVASP-35826,BC5,FAILED_JVASP-35826.cif,0.0,0.0,mBJ,0.0,0.21044,,P3m1
JVASP-42024,PrBS3,FAILED_JVASP-42024.cif,2.498,3.193,mBJ,0.695,-1.39972,,Pna2_1
JVASP-36114,CdC,FAILED_JVASP-36114.cif,0.0,0.0,mBJ,0.0,1.89679,,Fm-3m
JVASP-35365,Ti2B,FAILED_JVASP-35365.cif,0.0,0.0,mBJ,0.0,-0.39944,,I4/mcm
JVASP-41880,Sc2RuRh,FAILED_JVASP-41880.cif,0.0,0.0,mBJ,0.0,-0.86755,,Fm-3m
JVASP-35769,AlBi,FAILED_JVASP-35769.cif,0.0,0.088,mBJ,0.088,0.00406,,F-43m
JVASP-57164,Ba3P2S8,FAILED_JVASP-57164.cif,1.933,2.838,mBJ,0.905,-1.37795,,P-3m1
JVASP-35731,CrFe3,FAILED_JVASP-35731.cif,0.0,0.0,mBJ,0.0,0.01261,,Pm-3m
JVASP-33006,TeH6O6,FAILED_JVASP-33006.cif,1.934,3.04,mBJ,1.106,-0.79055,,I4/m
JVASP-579,NbS2,FAILED_JVASP-579.cif,0.0,0.0,mBJ,0.0,-0.8699,,Amm2
JVASP-22929,Y2TiO5,FAILED_JVASP-22929.cif,3.299,3.583,mBJ,0.284,-3.70052,,Pnma
JVASP-35288,ErInNi4,FAILED_JVASP-35288.cif,0.0,0.0,mBJ,0.0,-0.4322,,F-43m
JVASP-59727,Fe2N,FAILED_JVASP-59727.cif,0.0,0.0,mBJ,0.0,-0.14752,,Pbcn
JVASP-40856,Er2CuRu,FAILED_JVASP-40856.cif,0.0,0.0,mBJ,0.0,-0.44365,,Fm-3m
JVASP-35092,Ta2N3F,FAILED_JVASP-35092.cif,0.0,0.0,mBJ,0.0,-1.07998,,P6/mmm
JVASP-57165,BaCaGa4O8,FAILED_JVASP-57165.cif,3.21,5.261,mBJ,2.051,-2.39984,,Imm2
JVASP-22930,Sr3ScB3O9,FAILED_JVASP-22930.cif,4.691,5.188,mBJ,0.497,-3.16827,,R-3
JVASP-23556,TiCoSi,FAILED_JVASP-23556.cif,0.0,0.0,mBJ,0.0,-0.76145,,Pnma
JVASP-35685,MnFeCoGe,FAILED_JVASP-35685.cif,0.0,0.0,mBJ,0.0,-0.12628,,F-43m
JVASP-36485,Ba3BiSb,FAILED_JVASP-36485.cif,0.0,0.228,mBJ,0.228,-0.64861,,Pm-3m
JVASP-35686,LuAgO2,FAILED_JVASP-35686.cif,2.386,3.055,mBJ,0.669,-2.55352,,R-3m
JVASP-41881,ScS2,FAILED_JVASP-41881.cif,0.0,0.526,mBJ,0.526,-1.39016,,P4_2/mnm
JVASP-41799,Ti2MnBe,FAILED_JVASP-41799.cif,0.0,0.0,mBJ,0.0,-0.20712,,Fm-3m
JVASP-42076,PaZnRu2,FAILED_JVASP-42076.cif,0.0,0.0,mBJ,0.0,-0.39681,,Fm-3m
JVASP-35732,CrCo2Sb,FAILED_JVASP-35732.cif,0.0,0.0,mBJ,0.0,0.12928,,Fm-3m
JVASP-41920,ScAlCo2,FAILED_JVASP-41920.cif,0.0,0.0,mBJ,0.0,-0.56122,,Fm-3m
JVASP-35771,LiCdAs,FAILED_JVASP-35771.cif,0.0,0.806,mBJ,0.806,-0.49653,,F-43m
JVASP-56342,SrP3,FAILED_JVASP-56342.cif,0.402,0.932,mBJ,0.53,-0.73622,,C2/m
JVASP-35905,IrN2,FAILED_JVASP-35905.cif,0.0,0.0,mBJ,0.0,0.79962,,Cmcm
JVASP-36115,KYS2,FAILED_JVASP-36115.cif,2.405,3.267,mBJ,0.862,-2.09229,,R-3m
JVASP-41041,Ta2OsW,FAILED_JVASP-41041.cif,0.0,0.0,mBJ,0.0,-0.45335,,Fm-3m
JVASP-40857,Li2PmSi,FAILED_JVASP-40857.cif,0.0,0.0,mBJ,0.0,-0.31948,,Fm-3m
JVASP-41839,DyAlAg2,FAILED_JVASP-41839.cif,0.0,0.0,mBJ,0.0,-0.36134,,Fm-3m
JVASP-58400,K2HfF6,FAILED_JVASP-58400.cif,7.48,9.664,mBJ,2.184,-3.56051,,Fm-3m
JVASP-41001,TbSnRh2,FAILED_JVASP-41001.cif,0.0,0.0,mBJ,0.0,-0.76915,,Fm-3m
JVASP-42120,PmCd3,FAILED_JVASP-42120.cif,0.0,0.0,mBJ,0.0,-0.33267,,Fm-3m
JVASP-35733,CrCdTe2,FAILED_JVASP-35733.cif,0.0,0.0,mBJ,0.0,-0.07374,,P-4m2
JVASP-35734,CrAgTe2,FAILED_JVASP-35734.cif,0.0,0.0,mBJ,0.0,-0.07635,,R3m
JVASP-41125,HfZnNi2,FAILED_JVASP-41125.cif,0.0,0.0,mBJ,0.0,-0.45441,,Fm-3m
JVASP-23491,Ba2CaIrO6,FAILED_JVASP-23491.cif,0.0,0.0,mBJ,0.0,-2.35399,,Fm-3m
JVASP-23208,Ba2SmMoO6,FAILED_JVASP-23208.cif,2.263,2.937,mBJ,0.674,-3.0039,,Fm-3m
JVASP-41194,ZrSnRh2,FAILED_JVASP-41194.cif,0.0,0.0,mBJ,0.0,-0.72975,,Fm-3m
JVASP-35600,ZnCu2SnS4,FAILED_JVASP-35600.cif,0.0,0.585,mBJ,0.585,-0.51939,,I-42m
JVASP-35139,CePO4,FAILED_JVASP-35139.cif,0.0,0.0,mBJ,0.0,-3.06267,,I4_1/amd
JVASP-4501,VAgP2Se6,FAILED_JVASP-4501.cif,0.0,0.406,mBJ,0.406,-0.23824,,C2
JVASP-35774,HoNiBi,FAILED_JVASP-35774.cif,0.162,0.202,mBJ,0.04,-0.71011,,F-43m
JVASP-52737,Fe5SnO8,FAILED_JVASP-52737.cif,0.0,0.0,mBJ,0.0,-1.28918,,R-3m
JVASP-35505,Sr2ZrO4,FAILED_JVASP-35505.cif,3.268,3.887,mBJ,0.619,-3.38294,,I4/mmm
JVASP-41042,Ta2NbRu,FAILED_JVASP-41042.cif,0.0,0.0,mBJ,0.0,-0.26056,,Fm-3m
JVASP-41989,Be3Ir,FAILED_JVASP-41989.cif,0.0,0.0,mBJ,0.0,-0.46267,,I4/mmm
JVASP-41196,MnGaRh2,FAILED_JVASP-41196.cif,0.0,0.0,mBJ,0.0,-0.45601,,Fm-3m
JVASP-40944,Pm2MgGa,FAILED_JVASP-40944.cif,0.0,0.0,mBJ,0.0,-0.3405,,Fm-3m
JVASP-41923,ScReTc2,FAILED_JVASP-41923.cif,0.0,0.0,mBJ,0.0,-0.2304,,Fm-3m
JVASP-40858,Ba2BiAu,FAILED_JVASP-40858.cif,0.632,0.825,mBJ,0.193,-0.97676,,Fm-3m
JVASP-41197,MnAlIr2,FAILED_JVASP-41197.cif,0.0,0.0,mBJ,0.0,-0.55718,,Fm-3m
JVASP-36116,KSmSe2,FAILED_JVASP-36116.cif,1.859,2.933,mBJ,1.074,-1.85272,,R-3m
JVASP-41840,Sc2ZnTc,FAILED_JVASP-41840.cif,0.0,0.0,mBJ,0.0,-0.3485,,Fm-3m
JVASP-58426,V4SiSb2,FAILED_JVASP-58426.cif,0.0,0.0,mBJ,0.0,-0.23952,,I4/mcm
JVASP-50459,NdBiO4,FAILED_JVASP-50459.cif,0.591,2.773,mBJ,2.182,-2.12684,,C2/c
JVASP-58403,KF,FAILED_JVASP-58403.cif,7.111,10.207,mBJ,3.096,-2.86435,,Pm-3m
JVASP-52750,CrNiF6,FAILED_JVASP-52750.cif,0.0,0.0,mBJ,0.0,-2.26708,,R-3
JVASP-35220,Cd5S4Cl2,FAILED_JVASP-35220.cif,1.368,3.046,mBJ,1.678,-0.73606,,Cm
JVASP-35607,NdBrO2,FAILED_JVASP-35607.cif,3.14,5.153,mBJ,2.013,-2.1514,,P2_1/m
JVASP-23497,Fe2W,FAILED_JVASP-23497.cif,0.0,0.0,mBJ,0.0,-0.04456,,P6_3/mmc
JVASP-50460,TaAsO4,FAILED_JVASP-50460.cif,2.88,4.102,mBJ,1.222,-2.22774,,Cmc2_1
JVASP-41044,HoMgAu2,FAILED_JVASP-41044.cif,0.0,0.0,mBJ,0.0,-0.84297,,Fm-3m
JVASP-28493,MoW2Se2S4,FAILED_JVASP-28493.cif,0.74,0.689,mBJ,-0.051,-0.78099,,Cm
JVASP-20387,PuS,FAILED_JVASP-20387.cif,0.0,0.0,mBJ,0.0,-2.06353,,Fm-3m
JVASP-40945,KNa2Bi,FAILED_JVASP-40945.cif,0.104,0.938,mBJ,0.834,-0.47075,,Fm-3m
JVASP-20403,LuNi2,FAILED_JVASP-20403.cif,0.0,0.0,mBJ,0.0,-0.56855,,Fd-3m
JVASP-33040,AlBiSeCl4,FAILED_JVASP-33040.cif,2.625,3.322,mBJ,0.697,-1.21162,,I-4
JVASP-35054,RuN2,FAILED_JVASP-35054.cif,0.0,0.0,mBJ,0.0,0.71252,,P4/mbm
JVASP-35016,NpSbTe,FAILED_JVASP-35016.cif,0.0,0.0,mBJ,0.0,-0.69422,,P4/nmm
JVASP-36519,ZrB,FAILED_JVASP-36519.cif,0.0,0.0,mBJ,0.0,-0.45892,,P-6m2
JVASP-40895,Pm2AgSn,FAILED_JVASP-40895.cif,0.0,0.0,mBJ,0.0,-0.55807,,Fm-3m
JVASP-41245,Dy2ZnOs,FAILED_JVASP-41245.cif,0.0,0.0,mBJ,0.0,-0.38737,,Fm-3m
JVASP-56838,PaC,FAILED_JVASP-56838.cif,0.0,0.0,mBJ,0.0,-0.5668,,Fm-3m
JVASP-36118,KNaH2,FAILED_JVASP-36118.cif,3.111,5.574,mBJ,2.463,-0.25737,,P4/mmm
JVASP-54833,Dy2CdSe4,FAILED_JVASP-54833.cif,0.592,1.841,mBJ,1.249,-1.54826,,Fd-3m
JVASP-57176,AgTeO3,FAILED_JVASP-57176.cif,1.151,1.181,mBJ,0.03,-0.80013,,P2_1/m
JVASP-41200,MnV2Cr,FAILED_JVASP-41200.cif,0.0,0.0,mBJ,0.0,-0.19549,,Fm-3m