material_id,formula,cif_path,pbe_bandgap,hse_bandgap,gap_type,correction,formation_energy,total_energy,spacegroup
JVASP-104628,Yb2CuPd,FAILED_JVASP-104628.cif,0.0,0.0,mBJ,0.0,-0.70023,,Fm-3m
JVASP-2244,Sb2Te2Se,FAILED_JVASP-2244.cif,0.028,0.41,mBJ,0.382,-0.1974,,R-3m
JVASP-11997,As,FAILED_JVASP-11997.cif,0.077,0.649,mBJ,0.572,0.02549,,Cmce
JVASP-15467,ErSi2Ni2,FAILED_JVASP-15467.cif,0.0,0.0,mBJ,0.0,-0.8145,,I4/mmm
JVASP-2460,NdOF,FAILED_JVASP-2460.cif,4.505,6.152,mBJ,1.647,-4.00709,,R-3m
JVASP-15367,NbGaCo2,FAILED_JVASP-15367.cif,0.0,0.0,mBJ,0.0,-0.29772,,Fm-3m
JVASP-1486,KPrO2,FAILED_JVASP-1486.cif,3.654,5.197,mBJ,1.543,-2.81731,,R-3m
JVASP-28455,Te2MoW2Se4,FAILED_JVASP-28455.cif,0.738,0.905,mBJ,0.167,-0.38838,,P-6m2
JVASP-106499,CaHoCd2,FAILED_JVASP-106499.cif,0.0,0.0,mBJ,0.0,-0.40263,,Fm-3m
JVASP-101035,Y2ZnAg,FAILED_JVASP-101035.cif,0.0,0.0,mBJ,0.0,-0.40107,,Fm-3m
JVASP-15167,USeO,FAILED_JVASP-15167.cif,0.0,0.0,mBJ,0.0,-2.46312,,P4/nmm
JVASP-52904,PHN2,FAILED_JVASP-52904.cif,4.909,6.215,mBJ,1.306,-0.38263,,P2_12_12_1
JVASP-2943,TaCu3Te4,FAILED_JVASP-2943.cif,1.308,1.551,mBJ,0.243,-0.23916,,P-43m
JVASP-101685,Ti2AlGe3,FAILED_JVASP-101685.cif,0.0,0.0,mBJ,0.0,-0.46899,,Amm2
JVASP-104573,ErTmRu2,FAILED_JVASP-104573.cif,0.0,0.0,mBJ,0.0,-0.46671,,Fm-3m
JVASP-102769,Er2O3,FAILED_JVASP-102769.cif,2.924,4.924,mBJ,2.0,-3.75435,,R3m
JVASP-14726,NbB2,FAILED_JVASP-14726.cif,0.0,0.0,mBJ,0.0,-0.65103,,P6/mmm
JVASP-105114,Al2OsRh,FAILED_JVASP-105114.cif,0.0,0.0,mBJ,0.0,-0.78066,,Fm-3m
JVASP-106664,Sr2MgMoO6,FAILED_JVASP-106664.cif,2.036,2.698,mBJ,0.662,-2.94144,,Fm-3m
JVASP-101744,AlV2,FAILED_JVASP-101744.cif,0.0,0.0,mBJ,0.0,-0.141,,Fmmm
JVASP-14994,CdAg,FAILED_JVASP-14994.cif,0.0,0.0,mBJ,0.0,-0.05048,,Pm-3m
JVASP-14611,P,FAILED_JVASP-14611.cif,0.0,0.0,mBJ,0.0,0.05275,,R-3m
JVASP-106549,LiHg3,FAILED_JVASP-106549.cif,0.0,0.0,mBJ,0.0,-0.03382,,I4/mmm
JVASP-105498,GaNi2Pt,FAILED_JVASP-105498.cif,0.0,0.0,mBJ,0.0,-0.368,,P4/mmm
JVASP-102273,CaTmIn2,FAILED_JVASP-102273.cif,0.0,0.0,mBJ,0.0,-0.48063,,Fm-3m
JVASP-3018,YbZn2P2,FAILED_JVASP-3018.cif,0.814,1.469,mBJ,0.655,-0.80315,,P-3m1
JVASP-12197,SnO2,FAILED_JVASP-12197.cif,1.622,3.171,mBJ,1.549,-1.5912,,R-3m
JVASP-15801,KHgAs,FAILED_JVASP-15801.cif,0.0,0.0,mBJ,0.0,-0.29717,,P6_3/mmc
JVASP-104539,Rb2TlSbI6,FAILED_JVASP-104539.cif,0.742,0.888,mBJ,0.146,-0.86281,,Fm-3m
JVASP-105422,PdAu,FAILED_JVASP-105422.cif,0.0,0.0,mBJ,0.0,-0.07532,,R-3m
JVASP-101204,CuSi2P3,FAILED_JVASP-101204.cif,0.0,0.0,mBJ,0.0,-0.03701,,P3m1
JVASP-2946,Sr2ZnN2,FAILED_JVASP-2946.cif,0.91,1.569,mBJ,0.659,-0.76338,,I4/mmm
JVASP-18430,FeO2,FAILED_JVASP-18430.cif,0.0,0.0,mBJ,0.0,-1.2728,,R-3m
JVASP-15289,SmSi2Ni2,FAILED_JVASP-15289.cif,0.0,0.0,mBJ,0.0,-0.80104,,I4/mmm
JVASP-2556,CaCd2Sb2,FAILED_JVASP-2556.cif,0.068,0.727,mBJ,0.659,-0.48643,,P-3m1
JVASP-15717,Ta,FAILED_JVASP-15717.cif,0.0,0.0,mBJ,0.0,0.24799,,Fm-3m
JVASP-16908,TiBi2O6,FAILED_JVASP-16908.cif,0.0,0.0,mBJ,0.0,-1.60788,,P1
JVASP-106950,Ho2GaOs,FAILED_JVASP-106950.cif,0.0,0.0,mBJ,0.0,-0.46676,,Fm-3m
JVASP-48541,Li4VO4F,FAILED_JVASP-48541.cif,3.752,3.746,mBJ,-0.006,-2.60524,,P2_1
JVASP-103681,TbAlCu4,FAILED_JVASP-103681.cif,0.0,0.0,mBJ,0.0,-0.27231,,P-6m2
JVASP-15511,FeAgS2,FAILED_JVASP-15511.cif,0.0,0.0,mBJ,0.0,-0.23295,,I-42d
JVASP-101746,Al2S3,FAILED_JVASP-101746.cif,2.862,3.774,mBJ,0.912,-1.23237,,Cc
JVASP-54764,U3H2O10,FAILED_JVASP-54764.cif,2.131,2.074,mBJ,-0.057,-2.7632,,P-1
JVASP-104904,ZnCu2SnSe3S,FAILED_JVASP-104904.cif,0.016,0.198,mBJ,0.182,-0.43371,,P1
JVASP-15583,MnAlAu2,FAILED_JVASP-15583.cif,0.0,0.0,mBJ,0.0,-0.20862,,Fm-3m
JVASP-106459,K2RbYI6,FAILED_JVASP-106459.cif,3.02,3.945,mBJ,0.925,-1.41764,,Fm-3m
JVASP-44054,VOF,FAILED_JVASP-44054.cif,0.0,0.0,mBJ,0.0,-2.68184,,P4_12_12
JVASP-2071,RbBiS2,FAILED_JVASP-2071.cif,1.438,2.258,mBJ,0.82,-0.91252,,R-3m
JVASP-14612,Zr,FAILED_JVASP-14612.cif,0.0,0.0,mBJ,0.0,0.0,,P6_3/mmc
JVASP-101579,LiAl2Cu,FAILED_JVASP-101579.cif,0.0,0.0,mBJ,0.0,-0.22792,,Fm-3m
JVASP-105499,Ga2Se3,FAILED_JVASP-105499.cif,0.45,1.438,mBJ,0.988,-0.59236,,Imm2
JVASP-106500,YbCaGa2,FAILED_JVASP-106500.cif,0.0,0.0,mBJ,0.0,-0.57029,,Fm-3m
JVASP-1507,NaHoS2,FAILED_JVASP-1507.cif,2.328,3.27,mBJ,0.942,-2.01402,,R-3m
JVASP-15830,WS2,FAILED_JVASP-15830.cif,0.0,0.0,mBJ,0.0,-0.16589,,I-42d
JVASP-15052,HoMn2,FAILED_JVASP-15052.cif,0.0,0.0,mBJ,0.0,0.07307,,Fd-3m
JVASP-14727,ZrB,FAILED_JVASP-14727.cif,0.0,0.0,mBJ,0.0,-0.43887,,Fm-3m
JVASP-102325,SmGa3Pt,FAILED_JVASP-102325.cif,0.0,0.0,mBJ,0.0,-0.72287,,I-4m2
JVASP-18633,DyBiPt,FAILED_JVASP-18633.cif,0.0,0.0,mBJ,0.0,-1.05331,,F-43m
JVASP-50487,LiTeHO4,FAILED_JVASP-50487.cif,1.544,1.579,mBJ,0.035,-1.27192,,Pm
JVASP-15413,DyNiC2,FAILED_JVASP-15413.cif,0.0,0.0,mBJ,0.0,-0.41805,,Amm2
JVASP-105269,Tm2IrPt,FAILED_JVASP-105269.cif,0.0,0.0,mBJ,0.0,-1.2005,,Fm-3m
JVASP-102771,CuAgTe,FAILED_JVASP-102771.cif,0.0,0.003,mBJ,0.003,0.12467,,F-43m
JVASP-16213,MnNbGe,FAILED_JVASP-16213.cif,0.0,0.0,mBJ,0.0,-0.27307,,P-62m
JVASP-13799,CaThBr6,FAILED_JVASP-13799.cif,2.298,2.628,mBJ,0.33,-1.90089,,Pmma
JVASP-2355,ZnGeP2,FAILED_JVASP-2355.cif,1.054,1.932,mBJ,0.878,-0.23173,,I-42d
JVASP-42181,Na3VO4,FAILED_JVASP-42181.cif,3.883,4.351,mBJ,0.468,-2.32599,,Pmn2_1
JVASP-18803,Sc3InN,FAILED_JVASP-18803.cif,0.0,0.0,mBJ,0.0,-1.22509,,Pm-3m
JVASP-102421,K2RbPrI6,FAILED_JVASP-102421.cif,3.007,3.977,mBJ,0.97,-1.39498,,Fm-3m
JVASP-15718,FeN,FAILED_JVASP-15718.cif,0.0,0.0,mBJ,0.0,-0.29828,,F-43m
JVASP-4119,MgH2O2,FAILED_JVASP-4119.cif,4.636,5.92,HSE,1.284,-1.8475,,P-3m1
JVASP-14613,Ca,FAILED_JVASP-14613.cif,0.0,0.0,mBJ,0.0,0.00583,,P6_3/mmc
JVASP-16162,ScMnSi,FAILED_JVASP-16162.cif,0.0,0.0,mBJ,0.0,-0.57672,,P-62m
JVASP-104629,YbAlHg2,FAILED_JVASP-104629.cif,0.0,0.0,mBJ,0.0,-0.31756,,Fm-3m
JVASP-2802,Tl3SbS3,FAILED_JVASP-2802.cif,1.45,2.085,mBJ,0.635,-0.40589,,R3m
JVASP-103683,SrPrScO4,FAILED_JVASP-103683.cif,3.543,4.731,mBJ,1.188,-3.49195,,I4mm
JVASP-3021,K2ZnF4,FAILED_JVASP-3021.cif,4.54,7.154,mBJ,2.614,-2.79494,,I4/mmm
JVASP-102520,LiAc2Tl,FAILED_JVASP-102520.cif,0.0,0.0,mBJ,0.0,-0.20547,,Fm-3m
JVASP-105203,Mg5In,FAILED_JVASP-105203.cif,0.0,0.0,mBJ,0.0,-0.05813,,Amm2
JVASP-14953,DyCo5,FAILED_JVASP-14953.cif,0.0,0.0,mBJ,0.0,-0.13588,,P6/mmm
JVASP-12909,P3Ru,FAILED_JVASP-12909.cif,0.978,1.015,mBJ,0.037,-0.5147,,P-1
JVASP-2559,KCuSe,FAILED_JVASP-2559.cif,0.362,1.757,mBJ,1.395,-0.76502,,P6_3/mmc
JVASP-104845,ErMgPd2,FAILED_JVASP-104845.cif,0.0,0.0,mBJ,0.0,-0.87527,,Fm-3m
JVASP-42465,CrNi2,FAILED_JVASP-42465.cif,0.0,0.0,mBJ,0.0,-0.03846,,Immm
JVASP-50381,Tb3NbO7,FAILED_JVASP-50381.cif,2.629,3.111,mBJ,0.482,-3.52459,,Cmcm
JVASP-103736,Mg2CdN2,FAILED_JVASP-103736.cif,0.44,1.381,mBJ,0.941,-0.43112,,P-3m1
JVASP-104541,Rb2LiAlF6,FAILED_JVASP-104541.cif,7.671,10.489,mBJ,2.818,-3.41887,,Fm-3m
JVASP-43891,Li2VO2F,FAILED_JVASP-43891.cif,0.0,0.0,mBJ,0.0,-2.61428,,C2/m
JVASP-15516,TbCoC2,FAILED_JVASP-15516.cif,0.0,0.0,mBJ,0.0,-0.42636,,Amm2
JVASP-5203,SbSI,FAILED_JVASP-5203.cif,1.607,2.126,mBJ,0.519,-0.37166,,Pnma
JVASP-51022,BaH4O3,FAILED_JVASP-51022.cif,4.636,7.072,mBJ,2.436,-1.56811,,P-1
JVASP-3477,Nd3InN,FAILED_JVASP-3477.cif,0.0,0.0,mBJ,0.0,-0.94344,,Pm-3m
JVASP-21557,Ca4CN4,FAILED_JVASP-21557.cif,1.916,3.313,mBJ,1.397,-1.05346,,Pnma
JVASP-106839,CaPbSe2,FAILED_JVASP-106839.cif,0.772,1.066,mBJ,0.294,-1.38252,,P4/mmm
JVASP-107055,InPd3,FAILED_JVASP-107055.cif,0.0,0.0,mBJ,0.0,-0.33478,,P4/mmm
JVASP-105354,TlIn,FAILED_JVASP-105354.cif,0.0,0.0,mBJ,0.0,0.01133,,R-3m
JVASP-49947,Na2IrO3,FAILED_JVASP-49947.cif,0.0,0.0,mBJ,0.0,-1.38681,,C2/m
JVASP-105116,AcZn2In,FAILED_JVASP-105116.cif,0.0,0.0,mBJ,0.0,-0.33155,,Fm-3m
JVASP-104955,In2AgTe3I,FAILED_JVASP-104955.cif,0.334,0.887,mBJ,0.553,-0.29722,,Cm
JVASP-2463,AlAgS2,FAILED_JVASP-2463.cif,1.977,3.143,mBJ,1.166,-0.86977,,I-42d
JVASP-106728,TaAlSi,FAILED_JVASP-106728.cif,0.0,0.0,mBJ,0.0,-0.29037,,P3_212
JVASP-19824,TmAl3,FAILED_JVASP-19824.cif,0.0,0.0,mBJ,0.0,-0.43579,,Pm-3m
JVASP-13894,FePb2C6N6,FAILED_JVASP-13894.cif,3.373,3.829,mBJ,0.456,0.13515,,P-3
JVASP-103684,SrBeSi,FAILED_JVASP-103684.cif,0.0,0.0,mBJ,0.0,-0.38388,,P-6m2
JVASP-14686,CeSb,FAILED_JVASP-14686.cif,0.0,0.304,mBJ,0.304,-1.07393,,Fm-3m
JVASP-102714,MgZnS2,FAILED_JVASP-102714.cif,2.548,3.927,mBJ,1.379,-1.24257,,P-4m2
JVASP-101142,Nb3Al2Mo3,FAILED_JVASP-101142.cif,0.0,0.0,mBJ,0.0,-0.20791,,R32
JVASP-106779,MgZn3S4,FAILED_JVASP-106779.cif,0.839,2.158,mBJ,1.319,-0.85608,,C2/m
JVASP-13388,K2TeSe3,FAILED_JVASP-13388.cif,1.615,2.662,mBJ,1.047,-0.75056,,P2_1/c
JVASP-105502,Ga2CuAgSe4,FAILED_JVASP-105502.cif,0.022,0.727,mBJ,0.705,-0.45615,,I-4
JVASP-101580,LiGa3,FAILED_JVASP-101580.cif,0.0,0.0,mBJ,0.0,-0.20481,,I4/mmm
JVASP-107004,TbMg2Cu,FAILED_JVASP-107004.cif,0.0,0.0,mBJ,0.0,0.02016,,Fm-3m
JVASP-2466,CaMg2N2,FAILED_JVASP-2466.cif,2.487,3.452,mBJ,0.965,-1.04169,,P-3m1
JVASP-104542,Na2O,FAILED_JVASP-104542.cif,1.884,4.363,mBJ,2.479,-1.35957,,P-62m
JVASP-14902,BaRhF6,FAILED_JVASP-14902.cif,0.0,0.0,mBJ,0.0,-2.63283,,R-3m
JVASP-2694,KNbS2,FAILED_JVASP-2694.cif,0.888,1.276,mBJ,0.388,-1.32485,,P6_3/mmc
JVASP-1600,KYO2,FAILED_JVASP-1600.cif,4.142,5.67,mBJ,1.528,-3.04584,,R-3m
JVASP-1369,YN,FAILED_JVASP-1369.cif,0.314,1.17,mBJ,0.856,-1.96958,,Fm-3m
JVASP-102279,Hf3Sn,FAILED_JVASP-102279.cif,0.0,0.0,mBJ,0.0,-0.24487,,Pm-3m
JVASP-4122,YAgO2,FAILED_JVASP-4122.cif,2.698,3.306,mBJ,0.608,-2.4864,,P6_3/mmc
JVASP-107111,K2RbIrF6,FAILED_JVASP-107111.cif,2.279,3.341,mBJ,1.062,-2.3642,,Fm-3m
JVASP-103737,CaGe2N2,FAILED_JVASP-103737.cif,1.162,1.498,mBJ,0.336,-0.4407,,P-3m1
JVASP-2565,KZnP,FAILED_JVASP-2565.cif,0.938,2.101,mBJ,1.163,-0.55433,,P6_3/mmc
JVASP-102459,Bi3Au,FAILED_JVASP-102459.cif,0.0,0.0,mBJ,0.0,0.15394,,Pm-3m
JVASP-51198,CuIrBr,FAILED_JVASP-51198.cif,0.0,0.0,mBJ,0.0,1.13866,,F-43m
JVASP-15415,VFe2Si,FAILED_JVASP-15415.cif,0.0,0.0,mBJ,0.0,-0.45121,,Fm-3m
JVASP-102826,Sr2CN2,FAILED_JVASP-102826.cif,0.0,0.0,mBJ,0.0,-0.62912,,Cmme
JVASP-106781,MgIn2Te4,FAILED_JVASP-106781.cif,1.026,1.658,mBJ,0.632,-0.50291,,I-4
JVASP-18457,CrB4,FAILED_JVASP-18457.cif,0.0,0.0,mBJ,0.0,-0.2896,,Immm
JVASP-105428,Nd2Al3Ga,FAILED_JVASP-105428.cif,0.0,0.0,mBJ,0.0,-0.55251,,R-3m
JVASP-16164,VS2,FAILED_JVASP-16164.cif,0.0,0.0,mBJ,0.0,-0.96533,,P-3m1
JVASP-106840,Ca4GaSn3,FAILED_JVASP-106840.cif,0.0,0.0,mBJ,0.0,-0.71404,,Pmm2
JVASP-105026,K2AlHgF6,FAILED_JVASP-105026.cif,0.0,1.681,mBJ,1.681,-2.84973,,Fm-3m
JVASP-101640,SmInCu4,FAILED_JVASP-101640.cif,0.0,0.043,mBJ,0.043,-0.27258,,F-43m
JVASP-103637,TmGaCu2,FAILED_JVASP-103637.cif,0.0,0.0,mBJ,0.0,-0.38157,,Fm-3m
JVASP-43024,MnNbO4,FAILED_JVASP-43024.cif,0.0,0.0,mBJ,0.0,-2.26843,,I-4m2
JVASP-3027,AlAgO2,FAILED_JVASP-3027.cif,1.666,2.4,mBJ,0.734,-2.19288,,P6_3/mmc
JVASP-106555,Mg2Sb,FAILED_JVASP-106555.cif,0.0,0.0,mBJ,0.0,-0.2569,,Immm
JVASP-105204,MgAg5,FAILED_JVASP-105204.cif,0.0,0.0,mBJ,0.0,-0.12029,,R32
JVASP-102424,Rb2LiPrI6,FAILED_JVASP-102424.cif,2.898,3.491,mBJ,0.593,-1.47638,,Fm-3m
JVASP-105119,Ba2CdIn,FAILED_JVASP-105119.cif,0.0,0.0,mBJ,0.0,-0.47686,,Fm-3m
JVASP-104790,NaMnO2,FAILED_JVASP-104790.cif,0.858,1.373,mBJ,0.515,-1.81753,,C2/m
JVASP-3480,SrCuSeF,FAILED_JVASP-3480.cif,1.479,2.422,mBJ,0.943,-2.16561,,P4/nmm
JVASP-102715,MgMnTe2,FAILED_JVASP-102715.cif,0.642,1.303,mBJ,0.661,-0.46572,,P-4m2
JVASP-106668,HoRu3C,FAILED_JVASP-106668.cif,0.0,0.0,mBJ,0.0,-0.2627,,Pm-3m
JVASP-104956,In3SbTe2,FAILED_JVASP-104956.cif,0.0,0.0,mBJ,0.0,-0.22994,,P-3m1
JVASP-103585,AlGa3,FAILED_JVASP-103585.cif,0.0,0.0,mBJ,0.0,0.04311,,I4/mmm
JVASP-102326,SiAg3,FAILED_JVASP-102326.cif,0.0,0.0,mBJ,0.0,0.19498,,P-6m2
JVASP-14954,HfBe2,FAILED_JVASP-14954.cif,0.0,0.0,mBJ,0.0,-0.1702,,P6/mmm
JVASP-107226,TiGaCu2,FAILED_JVASP-107226.cif,0.0,0.0,mBJ,0.0,-0.23928,,Fm-3m
JVASP-105503,Ga2Ag2TeSe3,FAILED_JVASP-105503.cif,0.122,1.156,mBJ,1.034,-0.38409,,C2
JVASP-15032,TbIr2,FAILED_JVASP-15032.cif,0.0,0.0,mBJ,0.0,-0.86771,,Fd-3m
JVASP-107112,K2AlInI6,FAILED_JVASP-107112.cif,0.736,0.926,mBJ,0.19,-0.91501,,Fm-3m
JVASP-14996,CoSb,FAILED_JVASP-14996.cif,0.0,0.0,mBJ,0.0,-0.13153,,P6_3/mmc
JVASP-18634,ErBiPt,FAILED_JVASP-18634.cif,0.0,0.0,mBJ,0.0,-1.04403,,F-43m
JVASP-104580,Hf3Sn,FAILED_JVASP-104580.cif,0.0,0.0,mBJ,0.0,-0.2436,,I4/mmm
JVASP-1510,RbNdTe2,FAILED_JVASP-1510.cif,1.288,1.837,mBJ,0.549,-1.48243,,R-3m
JVASP-15168,ErSi2Pd2,FAILED_JVASP-15168.cif,0.0,0.0,mBJ,0.0,-0.86182,,I4/mmm
JVASP-14729,Ca,FAILED_JVASP-14729.cif,0.0,0.057,mBJ,0.057,0.0,,Fm-3m
JVASP-102619,Ge2Bi2Te5,FAILED_JVASP-102619.cif,0.61,0.79,mBJ,0.18,-0.18128,,P-3m1
JVASP-106611,TbTh3,FAILED_JVASP-106611.cif,0.0,0.0,mBJ,0.0,-0.03741,,Pm-3m
JVASP-15290,TmSnPd2,FAILED_JVASP-15290.cif,0.0,0.0,mBJ,0.0,-0.88526,,Fm-3m
JVASP-102327,RbBH4,FAILED_JVASP-102327.cif,6.022,8.608,mBJ,2.586,-0.44418,,F-43m
JVASP-101143,NaSbSe2,FAILED_JVASP-101143.cif,0.0,0.0,mBJ,0.0,-0.62078,,P4/mmm
JVASP-13148,Sr4Ti3O10,FAILED_JVASP-13148.cif,1.843,2.319,mBJ,0.476,-3.38498,,I4/mmm
JVASP-19825,DyCd,FAILED_JVASP-19825.cif,0.0,0.0,mBJ,0.0,-0.3441,,Pm-3m
JVASP-2577,RbAuO2,FAILED_JVASP-2577.cif,1.566,1.978,mBJ,0.412,-0.91262,,Cmcm
JVASP-102460,Ca2TlZn,FAILED_JVASP-102460.cif,0.0,0.0,mBJ,0.0,-0.43986,,Fm-3m
JVASP-106669,K2CoF6,FAILED_JVASP-106669.cif,0.0,1.422,mBJ,1.422,-2.45753,,Fm-3m
JVASP-16002,LaTiO3,FAILED_JVASP-16002.cif,0.0,3.5,mBJ,3.5,-3.45319,,Pm-3m
JVASP-13867,Na2GeF6,FAILED_JVASP-13867.cif,5.688,8.948,mBJ,3.26,-2.7671,,P-3m1
JVASP-106465,Rb2LiTiF6,FAILED_JVASP-106465.cif,0.0,0.567,mBJ,0.567,-3.29557,,Fm-3m
JVASP-104957,InCuTe2,FAILED_JVASP-104957.cif,0.0,0.32,mBJ,0.32,-0.25307,,P-4m2
JVASP-15330,DySi2Ru2,FAILED_JVASP-15330.cif,0.0,0.0,mBJ,0.0,-0.84693,,I4/mmm
JVASP-15214,ZrNi2Sb,FAILED_JVASP-15214.cif,0.0,0.0,mBJ,0.0,-0.5531,,P6_3/mmc
JVASP-107005,LiAs3,FAILED_JVASP-107005.cif,0.0,0.0,mBJ,0.0,-0.00268,,P6_3/mmc
JVASP-103685,SrCa2Si6,FAILED_JVASP-103685.cif,0.0,0.0,mBJ,0.0,-0.41742,,C2/m
JVASP-2472,CdPtF6,FAILED_JVASP-2472.cif,2.444,2.698,mBJ,0.254,-1.76782,,R-3
JVASP-4128,AcBrO,FAILED_JVASP-4128.cif,4.276,5.201,mBJ,0.925,-3.19838,,P4/nmm
JVASP-101872,SnH6C4O4,FAILED_JVASP-101872.cif,3.057,4.361,mBJ,1.304,-0.57702,,P-1
JVASP-102426,Rb3ScF6,FAILED_JVASP-102426.cif,6.256,8.192,mBJ,1.936,-3.4663,,Fm-3m
JVASP-104633,Ca3SiO,FAILED_JVASP-104633.cif,0.12,0.463,mBJ,0.343,-1.6727,,Imma
JVASP-102716,MgGeP2,FAILED_JVASP-102716.cif,0.185,0.935,mBJ,0.75,-0.33043,,P-4m2
JVASP-2367,CdSiP2,FAILED_JVASP-2367.cif,1.461,2.017,mBJ,0.556,-0.21083,,I-42d
JVASP-54955,KMnAg3C6N6,FAILED_JVASP-54955.cif,0.0,0.0,mBJ,0.0,0.16612,,P312
JVASP-101641,RbTlO,FAILED_JVASP-101641.cif,1.526,2.27,mBJ,0.744,-1.11919,,C2/m
JVASP-104732,KTiO2F,FAILED_JVASP-104732.cif,0.897,1.572,mBJ,0.675,-3.04407,,P4/mmm
JVASP-14955,Al3V,FAILED_JVASP-14955.cif,0.0,0.0,mBJ,0.0,-0.28539,,I4/mmm
JVASP-104909,TiOF2,FAILED_JVASP-104909.cif,2.037,2.696,mBJ,0.659,-3.32659,,P4/mmm
JVASP-104792,LiMnF3,FAILED_JVASP-104792.cif,1.824,2.438,mBJ,0.614,-2.64193,,Cmcm
JVASP-102620,DyPd2Pb,FAILED_JVASP-102620.cif,0.0,0.0,mBJ,0.0,-0.71884,,Fm-3m
JVASP-105208,MgGe3,FAILED_JVASP-105208.cif,0.0,0.0,mBJ,0.0,0.0957,,P6_3/mmc
JVASP-4131,Tb4Se3N2,FAILED_JVASP-4131.cif,1.397,1.997,mBJ,0.6,-1.94019,,C2/m
JVASP-102427,Rb2LiTaF6,FAILED_JVASP-102427.cif,0.0,1.719,mBJ,1.719,-2.92488,,Fm-3m
JVASP-103686,SmTmS2,FAILED_JVASP-103686.cif,0.0,0.0,mBJ,0.0,-2.1392,,R-3m
JVASP-102521,LiMg,FAILED_JVASP-102521.cif,0.0,0.0,mBJ,0.0,-0.11439,,P4/mmm
JVASP-18459,HfH2,FAILED_JVASP-18459.cif,0.0,0.0,mBJ,0.0,-0.49662,,I4/mmm
JVASP-107060,InCuSeS,FAILED_JVASP-107060.cif,0.03,0.242,mBJ,0.212,-0.49073,,I2_12_12_1
JVASP-105433,Nb2Pd,FAILED_JVASP-105433.cif,0.0,0.0,mBJ,0.0,-0.24009,,Fmmm
JVASP-104683,ThPbI6,FAILED_JVASP-104683.cif,1.256,1.699,mBJ,0.443,-1.03387,,Amm2
JVASP-102461,CaYCd2,FAILED_JVASP-102461.cif,0.0,0.0,mBJ,0.0,-0.4318,,Fm-3m
JVASP-13155,AlBiBr6,FAILED_JVASP-13155.cif,2.579,3.528,mBJ,0.949,-0.94691,,P-1
JVASP-106841,Ca2TlCd,FAILED_JVASP-106841.cif,0.0,0.0,mBJ,0.0,-0.49107,,P4/mmm
JVASP-16003,Al2O,FAILED_JVASP-16003.cif,0.0,0.0,mBJ,0.0,-0.05395,,Fm-3m
JVASP-101144,NaLiMnS2,FAILED_JVASP-101144.cif,0.0,0.165,mBJ,0.165,-0.82784,,P3m1
JVASP-13060,IF3,FAILED_JVASP-13060.cif,2.001,4.484,mBJ,2.483,-1.41455,,Pnma
JVASP-19826,MnAl,FAILED_JVASP-19826.cif,0.0,0.0,mBJ,0.0,-0.22066,,P4/mmm
JVASP-106466,MgZn3S4,FAILED_JVASP-106466.cif,2.241,3.661,mBJ,1.42,-1.06585,,P-43m
JVASP-102717,MgCdTe2,FAILED_JVASP-102717.cif,1.334,2.224,mBJ,0.89,-0.69155,,P-4m2
JVASP-2949,Ba2ZnN2,FAILED_JVASP-2949.cif,0.443,1.082,mBJ,0.639,-0.60553,,I4/mmm
JVASP-4134,Ca3BN3,FAILED_JVASP-4134.cif,0.727,1.741,mBJ,1.014,-1.31651,,P4/mmm
JVASP-49808,LuAlO3,FAILED_JVASP-49808.cif,5.437,7.108,mBJ,1.671,-3.6076,,R-3c
JVASP-107447,Ho2CdHg,FAILED_JVASP-107447.cif,0.0,0.0,mBJ,0.0,-0.37055,,Fm-3m
JVASP-104581,Ho2CuPt,FAILED_JVASP-104581.cif,0.0,0.0,mBJ,0.0,-0.85831,,Fm-3m
JVASP-1903,ErNiSb,FAILED_JVASP-1903.cif,0.244,0.274,mBJ,0.03,-0.92698,,F-43m
JVASP-107500,TmBiPt,FAILED_JVASP-107500.cif,0.0,0.0,mBJ,0.0,-1.04263,,F-43m
JVASP-18635,HoBiPt,FAILED_JVASP-18635.cif,0.0,0.0,mBJ,0.0,-1.04903,,F-43m
JVASP-107117,K2InAgF6,FAILED_JVASP-107117.cif,1.446,3.676,mBJ,2.23,-2.46946,,Fm-3m
JVASP-102328,NdSnAu,FAILED_JVASP-102328.cif,0.0,0.0,mBJ,0.0,-0.6403,,P-3m1
JVASP-1543,RbDyO2,FAILED_JVASP-1543.cif,3.655,5.476,mBJ,1.821,-2.96938,,R-3m
JVASP-104733,InGaSe2,FAILED_JVASP-104733.cif,0.0,0.0,mBJ,0.0,-0.54546,,I4cm
JVASP-104848,InGa3,FAILED_JVASP-104848.cif,0.0,0.0,mBJ,0.0,0.04151,,Pm-3m
JVASP-102522,LiNd2Rh,FAILED_JVASP-102522.cif,0.0,0.0,mBJ,0.0,-0.38405,,Fm-3m
JVASP-102570,YbSmAu2,FAILED_JVASP-102570.cif,0.0,0.0,mBJ,0.0,-1.00121,,Fm-3m
JVASP-14730,PrZn,FAILED_JVASP-14730.cif,0.0,0.0,mBJ,0.0,-0.35309,,Pm-3m
JVASP-104634,Nd2MgSi2,FAILED_JVASP-104634.cif,0.0,0.0,mBJ,0.0,-0.68577,,P4/mbm
JVASP-2475,K2HgO2,FAILED_JVASP-2475.cif,2.251,3.378,mBJ,1.127,-1.17244,,I4/mmm
JVASP-13061,Bi3Se4Br,FAILED_JVASP-13061.cif,1.056,1.625,mBJ,0.569,-0.45292,,C2/m
JVASP-106952,InRh3,FAILED_JVASP-106952.cif,0.0,0.0,mBJ,0.0,-0.13743,,P6_3/mmc
JVASP-104684,Tb4CuPt3,FAILED_JVASP-104684.cif,0.0,0.0,mBJ,0.0,-1.11792,,Pm
JVASP-106734,SrCa,FAILED_JVASP-106734.cif,0.0,0.033,mBJ,0.033,-0.00025,,R-3m
JVASP-105212,MgSc2Ga,FAILED_JVASP-105212.cif,0.0,0.0,mBJ,0.0,-0.36726,,Fm-3m
JVASP-19866,TmAl2,FAILED_JVASP-19866.cif,0.0,0.0,mBJ,0.0,-0.5164,,Fd-3m
JVASP-15369,SrAs2Pd2,FAILED_JVASP-15369.cif,0.0,0.0,mBJ,0.0,-0.76928,,I4/mmm
JVASP-102667,Th2Si3Ir,FAILED_JVASP-102667.cif,0.0,0.0,mBJ,0.0,-0.91887,,Imm2
JVASP-107557,Hf4CuSi3,FAILED_JVASP-107557.cif,0.0,0.0,mBJ,0.0,-0.62951,,Pmm2
JVASP-105505,GaNi4Ge3,FAILED_JVASP-105505.cif,0.0,0.0,mBJ,0.0,-0.2149,,R3
JVASP-16004,AlO,FAILED_JVASP-16004.cif,0.0,1.645,mBJ,1.645,-1.41631,,Fm-3m
JVASP-14760,CaTl3,FAILED_JVASP-14760.cif,0.0,0.0,mBJ,0.0,-0.26974,,Pm-3m
JVASP-102718,LiErS2,FAILED_JVASP-102718.cif,0.341,1.164,mBJ,0.823,-1.96157,,P4/mmm
JVASP-5212,CS2NClO2,FAILED_JVASP-5212.cif,2.58,3.103,mBJ,0.523,-0.33462,,Pca2_1
JVASP-101147,MnGaCu2Se4,FAILED_JVASP-101147.cif,0.0,0.0,mBJ,0.0,-0.39352,,I-4
JVASP-107228,Tm2PtRh,FAILED_JVASP-107228.cif,0.0,0.0,mBJ,0.0,-1.18254,,Fm-3m
JVASP-102462,YbCaCd2,FAILED_JVASP-102462.cif,0.0,0.0,mBJ,0.0,-0.46101,,Fm-3m
JVASP-22688,Mg2H6Ru,FAILED_JVASP-22688.cif,3.128,3.154,mBJ,0.026,-0.34381,,Fm-3m
JVASP-3246,CdGa2Te4,FAILED_JVASP-3246.cif,0.97,1.877,mBJ,0.907,-0.35636,,I-4
JVASP-2074,RbAu,FAILED_JVASP-2074.cif,0.499,0.958,mBJ,0.459,-0.41168,,Pm-3m
JVASP-107282,Tb2SiGe,FAILED_JVASP-107282.cif,0.0,0.0,mBJ,0.0,-0.84875,,Amm2
JVASP-2478,KZnF3,FAILED_JVASP-2478.cif,4.16,6.603,mBJ,2.443,-2.73294,,Pm-3m
JVASP-12910,SrH4O3,FAILED_JVASP-12910.cif,4.546,6.861,mBJ,2.315,-1.60199,,Pmc2_1
JVASP-101586,Mg2NiIr,FAILED_JVASP-101586.cif,0.0,0.0,mBJ,0.0,-0.36172,,Fm-3m
JVASP-107006,PrGe2Pd2,FAILED_JVASP-107006.cif,0.0,0.0,mBJ,0.0,-0.82893,,I4/mmm
JVASP-14687,ErPb3,FAILED_JVASP-14687.cif,0.0,0.0,mBJ,0.0,-0.24339,,Pm-3m
JVASP-15066,ScP,FAILED_JVASP-15066.cif,0.0,0.0,mBJ,0.0,-1.60251,,Fm-3m
JVASP-15215,MgAgAs,FAILED_JVASP-15215.cif,0.0,0.0,mBJ,0.0,-0.23538,,F-43m
JVASP-102571,YbSnO3,FAILED_JVASP-102571.cif,1.879,3.849,mBJ,1.97,-2.38433,,Pm-3m
JVASP-19827,TmSi2,FAILED_JVASP-19827.cif,0.0,0.0,mBJ,0.0,-0.40547,,P6/mmm
JVASP-15291,ZrAlNi2,FAILED_JVASP-15291.cif,0.0,0.0,mBJ,0.0,-0.63623,,Fm-3m
JVASP-1195,ZnO,FAILED_JVASP-1195.cif,0.965,2.473,mBJ,1.508,-1.59197,,P6_3mc