material_id,formula,cif_path,pbe_bandgap,hse_bandgap,gap_type,correction,formation_energy,total_energy,spacegroup
JVASP-42122,PmF3,FAILED_JVASP-42122.cif,5.611,6.796,mBJ,1.185,-4.15878,,I4/mmm
JVASP-35907,BaTi2As2O,FAILED_JVASP-35907.cif,0.0,0.0,mBJ,0.0,-1.69526,,P4/mmm
JVASP-29816,CoH2O2,FAILED_JVASP-29816.cif,0.0,0.0,mBJ,0.0,-0.74799,,Cm
JVASP-40860,NaPmTl2,FAILED_JVASP-40860.cif,0.0,0.0,mBJ,0.0,-0.29816,,Fm-3m
JVASP-28589,TeMo2SeS2,FAILED_JVASP-28589.cif,0.112,0.031,mBJ,-0.081,-0.65343,,Cm
JVASP-35314,PrHSe,FAILED_JVASP-35314.cif,2.104,2.681,mBJ,0.577,-1.51528,,P6_3/mmc
JVASP-41288,NaAcTe2,FAILED_JVASP-41288.cif,0.726,1.459,mBJ,0.733,-1.33323,,Fm-3m
JVASP-35055,ReN2,FAILED_JVASP-35055.cif,0.0,0.0,mBJ,0.0,0.27296,,P6_3/mmc
JVASP-41337,MnGaRu2,FAILED_JVASP-41337.cif,0.0,0.0,mBJ,0.0,-0.19152,,Fm-3m
JVASP-42123,PmDyMg2,FAILED_JVASP-42123.cif,0.0,0.0,mBJ,0.0,-0.08474,,Fm-3m
JVASP-50038,Dy2TiO5,FAILED_JVASP-50038.cif,2.946,3.386,mBJ,0.44,-3.59347,,C2/c
JVASP-28983,Te2MoW3Se2S4,FAILED_JVASP-28983.cif,0.03,0.0,mBJ,-0.03,-0.52005,,P3m1
JVASP-41202,MnSbRu2,FAILED_JVASP-41202.cif,0.0,0.0,mBJ,0.0,-0.00396,,Fm-3m
JVASP-41926,LiAc2Ga,FAILED_JVASP-41926.cif,0.0,0.0,mBJ,0.0,-0.23351,,Fm-3m
JVASP-4234,RuBr3,FAILED_JVASP-4234.cif,0.0,0.0,mBJ,0.0,-0.31769,,P6_3/mcm
JVASP-22931,Ca5Sb3,FAILED_JVASP-22931.cif,0.0,0.0,mBJ,0.0,-1.07073,,Pnma
JVASP-36119,InAs,FAILED_JVASP-36119.cif,0.0,0.424,mBJ,0.424,-0.20174,,P6_3mc
JVASP-41045,Zn2NiRh,FAILED_JVASP-41045.cif,0.0,0.0,mBJ,0.0,-0.33316,,Fm-3m
JVASP-29077,Te2MoWS2,FAILED_JVASP-29077.cif,0.249,0.781,mBJ,0.532,-0.44667,,P3m1
JVASP-23703,PRu2,FAILED_JVASP-23703.cif,0.0,0.0,mBJ,0.0,-0.32663,,Pnma
JVASP-40896,Pm2AgRu,FAILED_JVASP-40896.cif,0.0,0.0,mBJ,0.0,-0.2891,,Fm-3m
JVASP-35462,Rb2ZnF4,FAILED_JVASP-35462.cif,4.781,6.976,mBJ,2.195,-2.78404,,I4/mmm
JVASP-41886,Sc2TcAu,FAILED_JVASP-41886.cif,0.0,0.0,mBJ,0.0,-0.56627,,Fm-3m
JVASP-42080,Pa3Al,FAILED_JVASP-42080.cif,0.0,0.0,mBJ,0.0,-0.10547,,I4/mmm
JVASP-29079,Te2MoWSeS,FAILED_JVASP-29079.cif,0.207,0.36,mBJ,0.153,-0.3968,,P3m1
JVASP-36523,HfZn,FAILED_JVASP-36523.cif,0.0,0.0,mBJ,0.0,-0.2009,,Pm-3m
JVASP-41004,YbH2,FAILED_JVASP-41004.cif,3.294,5.19,mBJ,1.896,-0.7149,,Pnma
JVASP-20279,DyP,FAILED_JVASP-20279.cif,0.0,0.0,mBJ,0.0,-1.71181,,Fm-3m
JVASP-41339,DyMgZn2,FAILED_JVASP-41339.cif,0.0,0.0,mBJ,0.0,-0.37355,,Fm-3m
JVASP-52768,K2NaVOF5,FAILED_JVASP-52768.cif,0.959,4.655,mBJ,3.696,-3.00956,,I4mm
JVASP-35319,PbS2,FAILED_JVASP-35319.cif,0.325,1.032,mBJ,0.707,-0.40754,,I4/mcm
JVASP-58128,MgAg2O4,FAILED_JVASP-58128.cif,0.729,1.047,mBJ,0.318,-0.85219,,I4_1/amd
JVASP-35416,VCr2S4,FAILED_JVASP-35416.cif,0.0,0.0,mBJ,0.0,-0.85168,,C2/m
JVASP-35097,Th2HN3,FAILED_JVASP-35097.cif,1.76,2.528,mBJ,0.768,-1.4658,,P3m1
JVASP-54370,AlTlI4,FAILED_JVASP-54370.cif,3.327,4.204,mBJ,0.877,-0.72644,,P2_1/c
JVASP-78,Te2W,FAILED_JVASP-78.cif,0.0,0.0,mBJ,0.0,-0.07329,,Pmn2_1
JVASP-35506,Sr4Bi2O,FAILED_JVASP-35506.cif,0.928,1.309,mBJ,0.381,-1.63235,,I4/mmm
JVASP-56343,Tm6CoBi2,FAILED_JVASP-56343.cif,0.0,0.0,mBJ,0.0,-0.47964,,P-62m
JVASP-52770,NaH3CN4O,FAILED_JVASP-52770.cif,4.682,5.145,mBJ,0.463,-0.37283,,Pmma
JVASP-50042,In2Pt2O7,FAILED_JVASP-50042.cif,2.221,2.529,mBJ,0.308,-1.24389,,Fd-3m
JVASP-58316,MgSiO3,FAILED_JVASP-58316.cif,6.388,7.828,mBJ,1.44,-2.91985,,R-3
JVASP-42124,PmGaAg2,FAILED_JVASP-42124.cif,0.0,0.0,mBJ,0.0,-0.31893,,Fm-3m
JVASP-40948,KAcTe2,FAILED_JVASP-40948.cif,0.967,1.599,mBJ,0.632,-1.41504,,Fm-3m
JVASP-39,AlN,FAILED_JVASP-39.cif,4.474,5.197,mBJ,0.723,-1.64948,,P6_3mc
JVASP-29824,FeHO2,FAILED_JVASP-29824.cif,0.0,0.0,mBJ,0.0,-1.15427,,Cmc2_1
JVASP-41141,ZrAlAu2,FAILED_JVASP-41141.cif,0.0,0.0,mBJ,0.0,-0.57434,,Fm-3m
JVASP-41249,HfGaRu2,FAILED_JVASP-41249.cif,0.0,0.0,mBJ,0.0,-0.58717,,Fm-3m
JVASP-58288,CO2,FAILED_JVASP-58288.cif,6.682,9.313,mBJ,2.631,-1.3061,,P4_2/mnm
JVASP-23797,Ba2MgReO6,FAILED_JVASP-23797.cif,1.932,2.57,mBJ,0.638,-2.68904,,Fm-3m
JVASP-35908,KCdAs,FAILED_JVASP-35908.cif,0.257,1.407,mBJ,1.15,-0.47727,,P4/nmm
JVASP-41290,MnGaIr2,FAILED_JVASP-41290.cif,0.0,0.0,mBJ,0.0,-0.29596,,Fm-3m
JVASP-23798,Ba2NaOsO6,FAILED_JVASP-23798.cif,1.104,1.608,mBJ,0.504,-2.20498,,Fm-3m
JVASP-50461,YHO2,FAILED_JVASP-50461.cif,4.999,6.623,mBJ,1.624,-2.80514,,Pnma
JVASP-41888,Sc2TcPd,FAILED_JVASP-41888.cif,0.0,0.0,mBJ,0.0,-0.59267,,Fm-3m
JVASP-41850,Sc2GaOs,FAILED_JVASP-41850.cif,0.0,0.0,mBJ,0.0,-0.60394,,Fm-3m
JVASP-246,NiSe,FAILED_JVASP-246.cif,0.0,0.0,mBJ,0.0,-0.24294,,P6_3/mmc
JVASP-41048,HoSbRh2,FAILED_JVASP-41048.cif,0.0,0.0,mBJ,0.0,-0.7172,,Fm-3m
JVASP-29829,MgH2O2,FAILED_JVASP-29829.cif,4.637,6.752,mBJ,2.115,-1.8476,,P-3m1
JVASP-41928,Er2NiRu,FAILED_JVASP-41928.cif,0.0,0.0,mBJ,0.0,-0.51669,,Fm-3m
JVASP-40949,ErGaRh2,FAILED_JVASP-40949.cif,0.0,0.0,mBJ,0.0,-0.86623,,Fm-3m
JVASP-20749,PuSe,FAILED_JVASP-20749.cif,0.0,0.0,mBJ,0.0,-1.74991,,Fm-3m
JVASP-5155,U2Ni2Sn,FAILED_JVASP-5155.cif,0.0,0.0,mBJ,0.0,-0.2145,,P4/mbm
JVASP-56344,ScBRh3,FAILED_JVASP-56344.cif,0.0,0.0,mBJ,0.0,-0.74832,,Pm-3m
JVASP-58320,NaAlSi2O6,FAILED_JVASP-58320.cif,5.683,7.358,mBJ,1.675,-2.94517,,C2/c
JVASP-35611,CeSi2Ru,FAILED_JVASP-35611.cif,0.0,0.0,mBJ,0.0,-0.74259,,P2_1/m
JVASP-36123,InSb,FAILED_JVASP-36123.cif,0.001,0.142,mBJ,0.141,-0.08106,,P6_3mc
JVASP-35150,GaB3N4,FAILED_JVASP-35150.cif,3.976,4.954,mBJ,0.978,-0.80075,,P-43m
JVASP-23525,TaMnP,FAILED_JVASP-23525.cif,0.0,0.0,mBJ,0.0,-0.70671,,Pnma
JVASP-23424,TaSiRh,FAILED_JVASP-23424.cif,0.0,0.0,mBJ,0.0,-0.74224,,Pnma
JVASP-122,SnSe2,FAILED_JVASP-122.cif,0.471,1.142,mBJ,0.671,-0.33426,,P-3m1
JVASP-41851,Sc2GaRu,FAILED_JVASP-41851.cif,0.0,0.0,mBJ,0.0,-0.63349,,Fm-3m
JVASP-41998,ScTc2Mo,FAILED_JVASP-41998.cif,0.0,0.0,mBJ,0.0,-0.20336,,Fm-3m
JVASP-41049,ZnCuPd2,FAILED_JVASP-41049.cif,0.0,0.01,mBJ,0.01,-0.39239,,Fm-3m
JVASP-50044,TiBi2O5,FAILED_JVASP-50044.cif,1.606,2.851,mBJ,1.245,-1.98723,,Cmcm
JVASP-41434,TmSnRh2,FAILED_JVASP-41434.cif,0.0,0.0,mBJ,0.0,-0.8247,,Fm-3m
JVASP-23752,ErSiRu,FAILED_JVASP-23752.cif,0.0,0.0,mBJ,0.0,-0.81742,,Pnma
JVASP-41209,MnSiRu2,FAILED_JVASP-41209.cif,0.0,0.0,mBJ,0.0,-0.35052,,Fm-3m
JVASP-23863,CaCl2,FAILED_JVASP-23863.cif,5.289,6.765,mBJ,1.476,-2.52378,,P4_2/mnm
JVASP-58405,Li8IrO6,FAILED_JVASP-58405.cif,0.0,0.0,mBJ,0.0,-1.85625,,R-3
JVASP-57178,KNaMg2Si4O10F2,FAILED_JVASP-57178.cif,5.533,7.868,mBJ,2.335,-3.01182,,C2/m
JVASP-35909,KMgP,FAILED_JVASP-35909.cif,1.872,3.048,mBJ,1.176,-0.7839,,P4/nmm
JVASP-40901,NbBiO4,FAILED_JVASP-40901.cif,2.468,3.111,mBJ,0.643,-2.13664,,Cm
JVASP-41817,Ir2S3,FAILED_JVASP-41817.cif,1.111,1.154,mBJ,0.043,-0.42205,,R-3c
JVASP-23328,DyCoSi,FAILED_JVASP-23328.cif,0.0,0.0,mBJ,0.0,-0.71701,,Pnma
JVASP-42000,ScTc2W,FAILED_JVASP-42000.cif,0.0,0.0,mBJ,0.0,-0.38536,,Fm-3m
JVASP-41435,LuMgPd2,FAILED_JVASP-41435.cif,0.0,0.0,mBJ,0.0,-0.89097,,Fm-3m
JVASP-41890,Sc2AgOs,FAILED_JVASP-41890.cif,0.0,0.0,mBJ,0.0,-0.46963,,Fm-3m
JVASP-58407,CaMo6S8,FAILED_JVASP-58407.cif,0.0,0.0,mBJ,0.0,-0.98328,,R-3
JVASP-23802,K3NaS2O8,FAILED_JVASP-23802.cif,5.926,8.705,mBJ,2.779,-1.98888,,P-3m1
JVASP-58291,CO,FAILED_JVASP-58291.cif,5.81,7.301,mBJ,1.491,-0.3654,,P2_13
JVASP-41471,Lu2MgOs,FAILED_JVASP-41471.cif,0.0,0.0,mBJ,0.0,-0.29751,,Fm-3m
JVASP-23528,ScNiB4,FAILED_JVASP-23528.cif,0.0,0.0,mBJ,0.0,-0.57412,,Pbam
JVASP-57180,Dy3CuSnS7,FAILED_JVASP-57180.cif,1.476,2.125,mBJ,0.649,-1.55779,,P6_3
JVASP-41008,Nd2MgAl,FAILED_JVASP-41008.cif,0.0,0.0,mBJ,0.0,-0.27023,,Fm-3m
JVASP-41293,HfMnRh2,FAILED_JVASP-41293.cif,0.0,0.0,mBJ,0.0,-0.61103,,Fm-3m
JVASP-23443,ScSiRh,FAILED_JVASP-23443.cif,0.0,0.0,mBJ,0.0,-1.07916,,Pnma
JVASP-28539,Te2MoW2S4,FAILED_JVASP-28539.cif,0.089,0.079,mBJ,-0.01,-0.55694,,Cm
JVASP-41210,MnInRh2,FAILED_JVASP-41210.cif,0.0,0.0,mBJ,0.0,-0.25887,,Fm-3m
JVASP-52774,Na2BH4ClO4,FAILED_JVASP-52774.cif,4.956,7.339,mBJ,2.383,-1.64706,,P4/nmm
JVASP-20170,Be12Cr,FAILED_JVASP-20170.cif,0.0,0.0,mBJ,0.0,-0.04917,,I4/mmm
JVASP-4255,AsBr3,FAILED_JVASP-4255.cif,2.854,4.025,mBJ,1.171,-0.43159,,P2_12_12_1
JVASP-54374,K2Ge2Pb2O7,FAILED_JVASP-54374.cif,3.242,4.5,mBJ,1.258,-1.72951,,P-3
JVASP-20282,LuAs,FAILED_JVASP-20282.cif,0.0,0.0,mBJ,0.0,-1.52817,,Fm-3m
JVASP-42128,PmH3,FAILED_JVASP-42128.cif,0.0,0.433,mBJ,0.433,-0.57706,,Fm-3m
JVASP-58408,NaAlPO4F,FAILED_JVASP-58408.cif,5.943,8.109,mBJ,2.166,-2.87103,,C2/c
JVASP-35057,KMgAs,FAILED_JVASP-35057.cif,1.365,2.586,mBJ,1.221,-0.78459,,P4/nmm
JVASP-41213,MnSnRu2,FAILED_JVASP-41213.cif,0.0,0.0,mBJ,0.0,-0.02364,,Fm-3m
JVASP-40952,Pm2IrPd,FAILED_JVASP-40952.cif,0.0,0.0,mBJ,0.0,-0.831,,Fm-3m
JVASP-41930,LiErIn2,FAILED_JVASP-41930.cif,0.0,0.0,mBJ,0.0,-0.40017,,Fm-3m
JVASP-35418,Rb2MgCl4,FAILED_JVASP-35418.cif,5.079,7.38,mBJ,2.301,-2.07649,,I4/mmm
JVASP-41436,TbYbHg2,FAILED_JVASP-41436.cif,0.0,0.0,mBJ,0.0,-0.50414,,Fm-3m
JVASP-41256,HfGaRh2,FAILED_JVASP-41256.cif,0.0,0.0,mBJ,0.0,-0.87268,,Fm-3m
JVASP-36124,HoTlTe2,FAILED_JVASP-36124.cif,0.685,1.029,mBJ,0.344,-1.07527,,R-3m
JVASP-29830,UH2O4,FAILED_JVASP-29830.cif,1.97,1.959,mBJ,-0.011,-2.18853,,P2_1/c
JVASP-58325,Na2MgAlF7,FAILED_JVASP-58325.cif,7.066,11.15,mBJ,4.084,-3.50866,,Imma
JVASP-41891,Sc2AgIr,FAILED_JVASP-41891.cif,0.0,0.0,mBJ,0.0,-0.74366,,Fm-3m
JVASP-23811,HoSiRu,FAILED_JVASP-23811.cif,0.0,0.0,mBJ,0.0,-0.80877,,Pnma
JVASP-41853,LiBePt2,FAILED_JVASP-41853.cif,0.0,0.0,mBJ,0.0,-0.71706,,Fm-3m
JVASP-42129,PmHgAu2,FAILED_JVASP-42129.cif,0.0,0.0,mBJ,0.0,-0.57848,,Fm-3m
JVASP-35370,NpB6,FAILED_JVASP-35370.cif,0.0,0.0,mBJ,0.0,-0.32082,,Pm-3m
JVASP-41297,NaGaH8N2F6,FAILED_JVASP-41297.cif,6.093,8.85,mBJ,2.757,-1.55148,,Fm-3m
JVASP-59633,TbCaF6,FAILED_JVASP-59633.cif,0.0,0.0,mBJ,0.0,-3.62824,,P4_2/m
JVASP-23967,H4CN2O,FAILED_JVASP-23967.cif,5.166,7.144,mBJ,1.978,-0.5014,,P-42_1m
JVASP-35619,MnCu2SiTe4,FAILED_JVASP-35619.cif,0.0,0.0,mBJ,0.0,-0.04431,,I-42m
JVASP-23725,KFe2S3,FAILED_JVASP-23725.cif,0.0,0.0,mBJ,0.0,-0.79851,,Cmcm
JVASP-41257,HfMgIr2,FAILED_JVASP-41257.cif,0.0,0.0,mBJ,0.0,-0.90961,,Fm-3m
JVASP-41892,TaAlOs2,FAILED_JVASP-41892.cif,0.0,0.0,mBJ,0.0,-0.57741,,Fm-3m
JVASP-54379,NaClO3,FAILED_JVASP-54379.cif,5.7,7.02,mBJ,1.32,-0.70992,,P2_13
JVASP-4180,HgCl2,FAILED_JVASP-4180.cif,2.659,4.438,mBJ,1.779,-0.48945,,Pnma
JVASP-5254,BiSBr,FAILED_JVASP-5254.cif,1.945,2.667,mBJ,0.722,-0.61167,,Pnma
JVASP-29833,AlH3O3,FAILED_JVASP-29833.cif,5.337,7.348,mBJ,2.011,-1.84094,,P-1
JVASP-40868,PmSbPd2,FAILED_JVASP-40868.cif,0.0,0.0,mBJ,0.0,-0.81698,,Fm-3m
JVASP-23757,HfSiMo,FAILED_JVASP-23757.cif,0.0,0.0,mBJ,0.0,-0.63742,,Pnma
JVASP-54400,MgFe2O4,FAILED_JVASP-54400.cif,0.0,0.0,mBJ,0.0,-1.83395,,Fd-3m
JVASP-41056,HfAlRh2,FAILED_JVASP-41056.cif,0.0,0.0,mBJ,0.0,-1.01732,,Fm-3m
JVASP-41013,TbCdRh2,FAILED_JVASP-41013.cif,0.0,0.0,mBJ,0.0,-0.58721,,Fm-3m
JVASP-29834,AlH3O3,FAILED_JVASP-29834.cif,5.408,7.435,mBJ,2.027,-1.83727,,P1
JVASP-41572,Tm2MnOs,FAILED_JVASP-41572.cif,0.0,0.0,mBJ,0.0,-0.12129,,Fm-3m
JVASP-23972,H4NF,FAILED_JVASP-23972.cif,5.977,10.958,mBJ,4.981,-0.87354,,P6_3mc
JVASP-41439,DyZnRh2,FAILED_JVASP-41439.cif,0.0,0.0,mBJ,0.0,-0.68249,,Fm-3m
JVASP-35926,Li3CeSb2,FAILED_JVASP-35926.cif,0.0,0.735,mBJ,0.735,-0.81915,,P-3m1
JVASP-41216,Hf2CuOs,FAILED_JVASP-41216.cif,0.0,0.0,mBJ,0.0,-0.46745,,Fm-3m
JVASP-41893,TaAlRu2,FAILED_JVASP-41893.cif,0.0,0.0,mBJ,0.0,-0.72424,,Fm-3m
JVASP-23529,USi2Pt2,FAILED_JVASP-23529.cif,0.0,0.0,mBJ,0.0,-0.65195,,P4/nmm
JVASP-41476,Lu2PdRu,FAILED_JVASP-41476.cif,0.0,0.0,mBJ,0.0,-0.81987,,Fm-3m
JVASP-36126,HoTlS2,FAILED_JVASP-36126.cif,1.544,2.244,mBJ,0.7,-1.62251,,R-3m
JVASP-602,Te2Ir,FAILED_JVASP-602.cif,0.0,0.0,mBJ,0.0,-0.24565,,P-3m1
JVASP-52004,CaAlH5,FAILED_JVASP-52004.cif,3.347,4.595,mBJ,1.248,-0.38193,,P2_12_12_1
JVASP-4394,PrAl4,FAILED_JVASP-4394.cif,0.0,0.0,mBJ,0.0,-0.35451,,I4/mmm
JVASP-23973,H4OF2,FAILED_JVASP-23973.cif,7.275,10.927,mBJ,3.652,-1.36466,,P2_1/c
JVASP-20244,Dy4Sb3,FAILED_JVASP-20244.cif,0.0,0.0,mBJ,0.0,-1.00693,,I-43d
JVASP-42131,Er2ZnTc,FAILED_JVASP-42131.cif,0.0,0.0,mBJ,0.0,-0.23551,,Fm-3m
JVASP-41521,Tm2PdPt,FAILED_JVASP-41521.cif,0.0,0.0,mBJ,0.0,-1.18436,,Fm-3m
JVASP-58132,ZnAg2O4,FAILED_JVASP-58132.cif,0.402,0.654,mBJ,0.252,-0.46372,,I4_1/amd
JVASP-41573,Lu2AgRu,FAILED_JVASP-41573.cif,0.0,0.0,mBJ,0.0,-0.48775,,Fm-3m
JVASP-40869,PmRh2Pb,FAILED_JVASP-40869.cif,0.0,0.0,mBJ,0.0,-0.4783,,Fm-3m
JVASP-91,C,FAILED_JVASP-91.cif,4.457,5.035,mBJ,0.578,0.10166,,Fd-3m
JVASP-23813,ZrCuSi,FAILED_JVASP-23813.cif,0.0,0.0,mBJ,0.0,-0.62517,,Pnma
JVASP-41260,HfTc2Sb,FAILED_JVASP-41260.cif,0.0,0.0,mBJ,0.0,-0.2595,,Fm-3m
JVASP-23330,MnB2W2,FAILED_JVASP-23330.cif,0.0,0.0,mBJ,0.0,-0.31421,,P4/mbm
JVASP-14253,KAlS2O8,FAILED_JVASP-14253.cif,6.056,8.386,mBJ,2.33,-1.95443,,P-3m1
JVASP-58135,BaTi4ZnO8,FAILED_JVASP-58135.cif,0.0,0.0,mBJ,0.0,-2.68382,,P-31m
JVASP-41149,NdAgHg2,FAILED_JVASP-41149.cif,0.0,0.0,mBJ,0.0,-0.26706,,Fm-3m
JVASP-41261,HfTaRe2,FAILED_JVASP-41261.cif,0.0,0.0,mBJ,0.0,-0.4262,,Fm-3m
JVASP-35927,Li3CeBi2,FAILED_JVASP-35927.cif,0.0,0.137,mBJ,0.137,-0.68979,,P-3m1
JVASP-23865,SrClF,FAILED_JVASP-23865.cif,5.95,7.911,mBJ,1.961,-3.46343,,P4/nmm
JVASP-35509,Er2Fe2Si2C,FAILED_JVASP-35509.cif,0.0,0.0,mBJ,0.0,-0.72952,,C2/m
JVASP-41522,Tm2IrRu,FAILED_JVASP-41522.cif,0.0,0.0,mBJ,0.0,-0.79179,,Fm-3m
JVASP-52776,H2SO4,FAILED_JVASP-52776.cif,6.55,8.686,mBJ,2.136,-1.11802,,C2/c
JVASP-56267,Ca3Zn2Cu2P4,FAILED_JVASP-56267.cif,0.203,0.444,mBJ,0.241,-0.87234,,P-3m1
JVASP-41016,CaSmCd2,FAILED_JVASP-41016.cif,0.0,0.0,mBJ,0.0,-0.41347,,Fm-3m
JVASP-41478,UTlO3,FAILED_JVASP-41478.cif,0.439,2.108,mBJ,1.669,-2.73172,,Pm-3m
JVASP-41894,Sc2AgRu,FAILED_JVASP-41894.cif,0.0,0.0,mBJ,0.0,-0.48865,,Fm-3m
JVASP-35224,Ba2NbFeO6,FAILED_JVASP-35224.cif,0.0,0.0,mBJ,0.0,-2.65221,,Fm-3m
JVASP-35928,Li3DySb2,FAILED_JVASP-35928.cif,0.0,0.0,mBJ,0.0,-0.86527,,P-3m1
JVASP-23980,KHF2,FAILED_JVASP-23980.cif,7.406,11.24,mBJ,3.834,-2.37555,,I4/mcm
JVASP-5161,NiBi,FAILED_JVASP-5161.cif,0.0,0.0,mBJ,0.0,0.257,,P6_3/mmc
JVASP-54433,KTeOF3,FAILED_JVASP-54433.cif,4.17,5.872,mBJ,1.702,-2.20085,,P2_1
JVASP-56542,Dy2MgSi2,FAILED_JVASP-56542.cif,0.0,0.0,mBJ,0.0,-0.70615,,P4/mbm
JVASP-23759,CoMoP,FAILED_JVASP-23759.cif,0.0,0.0,mBJ,0.0,-0.56746,,Pnma
JVASP-41857,Sc2GaTc,FAILED_JVASP-41857.cif,0.0,0.0,mBJ,0.0,-0.46867,,Fm-3m
JVASP-35621,Tl3VSe4,FAILED_JVASP-35621.cif,1.532,1.487,mBJ,-0.045,-0.57022,,I-43m
JVASP-41262,Mn2VSi,FAILED_JVASP-41262.cif,0.0,0.0,mBJ,0.0,-0.44544,,Fm-3m
JVASP-14254,BaSi2,FAILED_JVASP-14254.cif,0.0,0.0,mBJ,0.0,-0.35096,,P6/mmm
JVASP-23213,Fe3O4,FAILED_JVASP-23213.cif,0.0,0.0,mBJ,0.0,-1.2103,,Fd-3m
JVASP-41576,MnV2Os,FAILED_JVASP-41576.cif,0.0,0.0,mBJ,0.0,-0.28757,,Fm-3m
JVASP-35061,SiC2,FAILED_JVASP-35061.cif,0.0,0.0,mBJ,0.0,0.36521,,P4_2/mmc
JVASP-41060,Yb3N2,FAILED_JVASP-41060.cif,0.551,2.062,mBJ,1.511,-1.18301,,R-3c
JVASP-52777,TiH,FAILED_JVASP-52777.cif,0.0,0.0,mBJ,0.0,-0.37138,,P4_2/mmc
JVASP-52006,HgC2S2N2,FAILED_JVASP-52006.cif,2.092,3.233,mBJ,1.141,0.32884,,C2/m
JVASP-41858,ScI2,FAILED_JVASP-41858.cif,0.0,0.0,mBJ,0.0,-1.06784,,P4_2/mnm
JVASP-41679,Y2MgAl,FAILED_JVASP-41679.cif,0.0,0.0,mBJ,0.0,-0.32408,,Fm-3m
JVASP-52780,K3ReH6,FAILED_JVASP-52780.cif,0.0,0.0,mBJ,0.0,-0.10605,,Fm-3m
JVASP-41577,Lu2AlOs,FAILED_JVASP-41577.cif,0.0,0.0,mBJ,0.0,-0.44073,,Fm-3m
JVASP-41523,V3Ru,FAILED_JVASP-41523.cif,0.0,0.0,mBJ,0.0,-0.28008,,Fm-3m
JVASP-23827,YbCoB4,FAILED_JVASP-23827.cif,0.0,0.0,mBJ,0.0,-0.48814,,Pbam
JVASP-41895,GaCuRh2,FAILED_JVASP-41895.cif,0.0,0.0,mBJ,0.0,-0.34074,,Fm-3m
JVASP-14255,TlCdS2,FAILED_JVASP-14255.cif,0.0,0.0,mBJ,0.0,-0.36892,,P-3m1
JVASP-21477,KBePO4,FAILED_JVASP-21477.cif,5.614,8.362,mBJ,2.748,-2.65726,,Pna2_1
JVASP-55018,NdSi2Os2,FAILED_JVASP-55018.cif,0.0,0.0,mBJ,0.0,-0.66945,,I4/mmm
JVASP-35103,ThSbTe,FAILED_JVASP-35103.cif,0.0,0.0,mBJ,0.0,-1.07416,,P4/nmm
JVASP-56840,Hf2Te,FAILED_JVASP-56840.cif,0.0,0.0,mBJ,0.0,-0.48165,,C2/m
JVASP-36527,TiZn,FAILED_JVASP-36527.cif,0.0,0.0,mBJ,0.0,-0.19463,,Pm-3m
JVASP-5164,CuI,FAILED_JVASP-5164.cif,1.571,3.095,mBJ,1.524,-0.13135,,P4/nmm
JVASP-5257,GaSeBr7,FAILED_JVASP-5257.cif,1.993,2.974,mBJ,0.981,-0.44255,,Pc
JVASP-41479,Tm2Mg,FAILED_JVASP-41479.cif,0.0,0.0,mBJ,0.0,-0.04503,,Cmcm
JVASP-40955,Pm2IrPt,FAILED_JVASP-40955.cif,0.0,0.0,mBJ,0.0,-0.96241,,Fm-3m
JVASP-54436,VBiO4,FAILED_JVASP-54436.cif,2.727,2.935,mBJ,0.208,-2.11881,,I4_1/amd
JVASP-56545,ZrIn3,FAILED_JVASP-56545.cif,0.0,0.0,mBJ,0.0,-0.20787,,I4/mmm
JVASP-23867,NaClO4,FAILED_JVASP-23867.cif,5.925,8.137,mBJ,2.212,-0.55736,,Cmcm
JVASP-24028,MgH4Cl2O2,FAILED_JVASP-24028.cif,5.54,7.707,mBJ,2.167,-1.37481,,C2/m
JVASP-35374,K2NpO4,FAILED_JVASP-35374.cif,0.38,1.96,mBJ,1.58,-2.75662,,I4/mmm
JVASP-40872,PmSnRh2,FAILED_JVASP-40872.cif,0.0,0.0,mBJ,0.0,-0.67046,,Fm-3m
JVASP-31202,NaBH4,FAILED_JVASP-31202.cif,6.434,8.494,mBJ,2.06,-0.37232,,P4_2/nmc
JVASP-41154,Na2TlBi,FAILED_JVASP-41154.cif,0.223,0.633,mBJ,0.41,-0.34193,,Fm-3m
JVASP-56842,DyAl3,FAILED_JVASP-56842.cif,0.0,0.0,mBJ,0.0,-0.4492,,Pm-3m
JVASP-35026,PdO2,FAILED_JVASP-35026.cif,0.0,0.0,mBJ,0.0,-0.44913,,P4_2/mnm
JVASP-42082,KPAuSe3,FAILED_JVASP-42082.cif,0.948,1.788,mBJ,0.84,-0.47427,,C2/m
JVASP-35932,Li3NdSb2,FAILED_JVASP-35932.cif,0.0,0.011,mBJ,0.011,-0.89171,,P-3m1
JVASP-39687,Li2PrTl,FAILED_JVASP-39687.cif,0.0,0.0,mBJ,0.0,-0.276,,Fm-3m
JVASP-41896,Sc2AlOs,FAILED_JVASP-41896.cif,0.0,0.0,mBJ,0.0,-0.55838,,Fm-3m
JVASP-23334,USiIr,FAILED_JVASP-23334.cif,0.0,0.0,mBJ,0.0,-0.66629,,Pnma
JVASP-41524,Tm2OsRu,FAILED_JVASP-41524.cif,0.0,0.0,mBJ,0.0,-0.37618,,Fm-3m
JVASP-35062,SmFeSi,FAILED_JVASP-35062.cif,0.0,0.0,mBJ,0.0,-0.59152,,P4/nmm
JVASP-31206,MgGa2O4,FAILED_JVASP-31206.cif,2.711,4.538,mBJ,1.827,-2.33853,,Imma
JVASP-41264,AcTlTe2,FAILED_JVASP-41264.cif,0.922,1.465,mBJ,0.543,-1.10636,,Fm-3m
JVASP-41230,Mn2AlRe,FAILED_JVASP-41230.cif,0.0,0.0,mBJ,0.0,-0.19607,,Fm-3m
JVASP-52016,FeBiO3,FAILED_JVASP-52016.cif,0.0,0.0,mBJ,0.0,-0.89828,,R3
JVASP-55019,Na2LiN,FAILED_JVASP-55019.cif,0.884,2.345,mBJ,1.461,0.118,,P4/nmm
JVASP-41933,BeRu2W,FAILED_JVASP-41933.cif,0.0,0.0,mBJ,0.0,-0.32404,,Fm-3m
JVASP-31210,SrNd2Se4,FAILED_JVASP-31210.cif,1.806,2.308,mBJ,0.502,-2.05205,,I-42d
JVASP-41480,Lu2CoRu,FAILED_JVASP-41480.cif,0.0,0.0,mBJ,0.0,-0.45336,,Fm-3m
JVASP-41863,Sc2IrPd,FAILED_JVASP-41863.cif,0.0,0.0,mBJ,0.0,-1.06869,,Fm-3m
JVASP-41682,YBr3,FAILED_JVASP-41682.cif,2.514,3.59,mBJ,1.076,-1.86509,,P6_3/mmc
JVASP-41897,LiErTl2,FAILED_JVASP-41897.cif,0.0,0.0,mBJ,0.0,-0.32675,,Fm-3m
JVASP-23546,URhS3,FAILED_JVASP-23546.cif,0.0,0.0,mBJ,0.0,-1.11116,,Pnma
JVASP-40909,Ho2CdOs,FAILED_JVASP-40909.cif,0.0,0.0,mBJ,0.0,-0.33433,,Fm-3m
JVASP-39688,YbCl2,FAILED_JVASP-39688.cif,5.566,7.595,mBJ,2.029,-2.59579,,P4_2/mnm
JVASP-23502,ZrFeP,FAILED_JVASP-23502.cif,0.0,0.0,mBJ,0.0,-1.07202,,Pnma
JVASP-41734,TaTlO3,FAILED_JVASP-41734.cif,0.93,1.185,mBJ,0.255,-2.38081,,Pm-3m
JVASP-35933,Li3PrBi2,FAILED_JVASP-35933.cif,0.0,0.0,mBJ,0.0,-0.74626,,P-3m1
JVASP-5323,TmCl2,FAILED_JVASP-5323.cif,0.0,0.0,mBJ,0.0,-1.88136,,Pbca
JVASP-30990,KAlH4,FAILED_JVASP-30990.cif,5.056,6.846,mBJ,1.79,-0.30978,,Pnma
JVASP-23764,Ag5Pb2O6,FAILED_JVASP-23764.cif,0.0,0.0,mBJ,0.0,-0.58861,,P-31m
JVASP-41265,LiPaRu2,FAILED_JVASP-41265.cif,0.0,0.0,mBJ,0.0,-0.36767,,Fm-3m
JVASP-42135,PmHoMg2,FAILED_JVASP-42135.cif,0.0,0.0,mBJ,0.0,-0.08143,,Fm-3m
JVASP-39765,YbPd2Pb,FAILED_JVASP-39765.cif,0.0,0.0,mBJ,0.0,-0.69985,,Fm-3m
JVASP-41898,LiEr2Al,FAILED_JVASP-41898.cif,0.0,0.0,mBJ,0.0,-0.22059,,Fm-3m
JVASP-41937,LiCa2Al,FAILED_JVASP-41937.cif,0.0,0.0,mBJ,0.0,-0.21012,,Fm-3m
JVASP-39820,YbPmAg2,FAILED_JVASP-39820.cif,0.0,0.0,mBJ,0.0,-0.42875,,Fm-3m
JVASP-50046,SmTlO2,FAILED_JVASP-50046.cif,1.878,2.392,mBJ,0.514,-2.4737,,P6_3/mmc
JVASP-35632,HoO3,FAILED_JVASP-35632.cif,0.142,1.991,mBJ,1.849,-1.72673,,P6_3/m
JVASP-41864,Sc2InAg,FAILED_JVASP-41864.cif,0.0,0.0,mBJ,0.0,-0.39966,,Fm-3m
JVASP-29200,Te2Mo3WSe6,FAILED_JVASP-29200.cif,0.581,0.515,mBJ,-0.066,-0.4887,,P3m1
JVASP-41684,LuGaPd2,FAILED_JVASP-41684.cif,0.0,0.0,mBJ,0.0,-0.86291,,Fm-3m
JVASP-56234,TbTlSe2,FAILED_JVASP-56234.cif,1.288,1.769,mBJ,0.481,-1.44164,,R-3m
JVASP-41023,Pm2SnPd,FAILED_JVASP-41023.cif,0.0,0.0,mBJ,0.0,-0.72955,,Fm-3m
JVASP-41442,Lu2ZnIr,FAILED_JVASP-41442.cif,0.0,0.0,mBJ,0.0,-0.77987,,Fm-3m
JVASP-35425,Ba2RuO4,FAILED_JVASP-35425.cif,0.0,0.0,mBJ,0.0,-2.26742,,I4/mmm
JVASP-50047,Zr3N2O3,FAILED_JVASP-50047.cif,2.846,3.353,mBJ,0.507,-2.81289,,Cm