material_id,formula,cif_path,pbe_bandgap,hse_bandgap,gap_type,correction,formation_energy,total_energy,spacegroup
JVASP-8462,Ce3In,FAILED_JVASP-8462.cif,0.0,0.0,mBJ,0.0,-0.18932,,Pm-3m
JVASP-43469,Zr2N2O,FAILED_JVASP-43469.cif,1.124,1.693,mBJ,0.569,-2.26173,,P2_1/m
JVASP-29556,GaSe,FAILED_JVASP-29556.cif,0.701,2.12,mBJ,1.419,-0.58189,,P6_3mc
JVASP-30671,AlSbO3,FAILED_JVASP-30671.cif,1.299,2.049,mBJ,0.75,-1.96864,,P6_3cm
JVASP-8753,NiH2O2,FAILED_JVASP-8753.cif,0.937,4.32,HSE,3.383,-0.85741,,P-3m1
JVASP-14172,V5Te4,FAILED_JVASP-14172.cif,0.0,0.0,mBJ,0.0,-0.30161,,I4/m
JVASP-78296,TcC,FAILED_JVASP-78296.cif,0.0,0.0,mBJ,0.0,0.57828,,Fm-3m
JVASP-34317,SnS,FAILED_JVASP-34317.cif,1.575,1.883,mBJ,0.308,-0.41377,,Aem2
JVASP-50020,Ti3N2O3,FAILED_JVASP-50020.cif,1.483,1.824,mBJ,0.341,-2.51906,,Cmcm
JVASP-12833,K2B2S7,FAILED_JVASP-12833.cif,2.573,3.631,mBJ,1.058,-0.74763,,C2/c
JVASP-27814,PHF4,FAILED_JVASP-27814.cif,7.547,10.546,mBJ,2.999,-2.09308,,P2_1/c
JVASP-12191,SnO2,FAILED_JVASP-12191.cif,0.0,1.056,mBJ,1.056,-1.09791,,P6_3/mmc
JVASP-28443,IrI3,FAILED_JVASP-28443.cif,1.194,1.459,mBJ,0.265,-0.13514,,C2/m
JVASP-11773,FeBO3,FAILED_JVASP-11773.cif,0.0,0.0,mBJ,0.0,-1.91672,,R-3c
JVASP-34184,Mg2VO4,FAILED_JVASP-34184.cif,0.0,0.326,mBJ,0.326,-2.79063,,Fd-3m
JVASP-29861,CoH2O2,FAILED_JVASP-29861.cif,0.0,0.0,mBJ,0.0,-0.86051,,P1
JVASP-10551,Rb3BP2,FAILED_JVASP-10551.cif,1.712,2.742,mBJ,1.03,-0.51656,,C2/c
JVASP-34214,UBi2O6,FAILED_JVASP-34214.cif,1.665,1.751,mBJ,0.086,-2.24953,,P-3m1
JVASP-11300,MgSnF4,FAILED_JVASP-11300.cif,3.698,4.722,mBJ,1.024,-3.0488,,P1
JVASP-34318,Ba3Ga2Ge4O14,FAILED_JVASP-34318.cif,2.353,4.246,mBJ,1.893,-2.25983,,P321
JVASP-10952,CaCo4O8,FAILED_JVASP-10952.cif,0.168,0.157,mBJ,-0.011,-1.53063,,C2/m
JVASP-11076,SnO2,FAILED_JVASP-11076.cif,1.214,2.708,mBJ,1.494,-1.77306,,Pbcn
JVASP-57094,Rb2Sb4S7,FAILED_JVASP-57094.cif,1.876,2.769,mBJ,0.893,-0.63412,,P-1
JVASP-34216,RbPO3,FAILED_JVASP-34216.cif,4.797,8.065,mBJ,3.268,-2.29424,,Cmcm
JVASP-51361,HoH3,FAILED_JVASP-51361.cif,0.19,1.247,mBJ,1.057,-0.67213,,P-3c1
JVASP-29639,CdI2,FAILED_JVASP-29639.cif,2.172,3.373,mBJ,1.201,-0.58117,,P3m1
JVASP-1151,MgB2,FAILED_JVASP-1151.cif,0.0,0.0,mBJ,0.0,-0.19412,,P6/mmm
JVASP-34259,V2ZnO6,FAILED_JVASP-34259.cif,2.19,2.469,mBJ,0.279,-2.26738,,C2/m
JVASP-78347,Tm,FAILED_JVASP-78347.cif,0.0,0.0,mBJ,0.0,-0.0002,,P6_3/mmc
JVASP-50913,YBi3O6,FAILED_JVASP-50913.cif,2.103,3.193,mBJ,1.09,-1.93819,,R-3
JVASP-29915,CdHClO,FAILED_JVASP-29915.cif,2.504,4.584,mBJ,2.08,-1.13977,,P6_3mc
JVASP-34187,Nb10C7,FAILED_JVASP-34187.cif,0.0,0.0,mBJ,0.0,-0.51065,,C2/m
JVASP-34555,YSeF,FAILED_JVASP-34555.cif,1.638,2.377,mBJ,0.739,-2.94589,,Pnma
JVASP-49864,LuNbO4,FAILED_JVASP-49864.cif,3.244,3.946,mBJ,0.702,-3.35662,,P2/c
JVASP-9409,CaTiO3,FAILED_JVASP-9409.cif,2.309,2.818,mBJ,0.509,-3.39803,,I4/mcm
JVASP-57372,Na5MoNO4,FAILED_JVASP-57372.cif,2.561,4.364,mBJ,1.803,-1.67353,,Cmcm
JVASP-36000,SnS2,FAILED_JVASP-36000.cif,1.534,2.795,mBJ,1.261,-0.35518,,I-42d
JVASP-29862,Mo2H2O7,FAILED_JVASP-29862.cif,2.2,2.728,mBJ,0.528,-1.69545,,P2_1
JVASP-5101,ZnIn2S4,FAILED_JVASP-5101.cif,0.237,0.749,mBJ,0.512,-0.63101,,P-3m1
JVASP-34659,SiO2,FAILED_JVASP-34659.cif,5.68,8.861,mBJ,3.181,-2.82383,,C2
JVASP-51411,H2O,FAILED_JVASP-51411.cif,5.234,9.807,mBJ,4.573,-0.94411,,C222_1
JVASP-10164,ZnSb2O4,FAILED_JVASP-10164.cif,2.252,3.586,mBJ,1.334,-1.40451,,C2/m
JVASP-29526,ZnTeMoO6,FAILED_JVASP-29526.cif,2.985,3.704,mBJ,0.719,-1.69248,,P2_12_12
JVASP-22665,BeI2,FAILED_JVASP-22665.cif,4.039,4.77,mBJ,0.731,-0.58655,,Ibam
JVASP-49833,SrCa2I6,FAILED_JVASP-49833.cif,3.667,4.506,mBJ,0.839,-1.70957,,P-31m
JVASP-49865,Sm2Ge2O7,FAILED_JVASP-49865.cif,3.878,6.064,mBJ,2.186,-2.70019,,C2/m
JVASP-12835,Na2B2Se7,FAILED_JVASP-12835.cif,1.486,2.68,mBJ,1.194,-0.42387,,C2/c
JVASP-21352,CaSi2WO6,FAILED_JVASP-21352.cif,0.816,1.014,mBJ,0.198,-2.52873,,C2/c
JVASP-29756,Ga2Fe2S5,FAILED_JVASP-29756.cif,0.0,0.0,mBJ,0.0,-0.50488,,P6_3/mmc
JVASP-29640,SnPSe3,FAILED_JVASP-29640.cif,1.27,1.701,mBJ,0.431,-0.25148,,P2_1/c
JVASP-34189,Ti9O10,FAILED_JVASP-34189.cif,0.0,0.0,mBJ,0.0,-2.67431,,P-1
JVASP-34560,Zn2SiO4,FAILED_JVASP-34560.cif,2.949,4.616,mBJ,1.667,-2.17046,,I-42d
JVASP-42385,Li2FeF4,FAILED_JVASP-42385.cif,0.0,0.0,mBJ,0.0,-2.6265,,Cmcm
JVASP-9867,ZnAg2O4,FAILED_JVASP-9867.cif,0.439,0.685,mBJ,0.246,-0.46603,,I4_1/amd
JVASP-57227,YbBi2ClO4,FAILED_JVASP-57227.cif,0.0,0.0,mBJ,0.0,-1.84327,,P4/mmm
JVASP-34262,K4CO4,FAILED_JVASP-34262.cif,3.208,5.918,mBJ,2.71,-1.41943,,P-43m
JVASP-21353,MgFeSi2O6,FAILED_JVASP-21353.cif,0.217,1.135,mBJ,0.918,-2.56646,,C2/c
JVASP-12839,K3GaS3,FAILED_JVASP-12839.cif,2.891,4.576,mBJ,1.685,-1.25643,,P2_1/c
JVASP-57,MoSe2,FAILED_JVASP-57.cif,0.906,1.31,HSE,0.404,-0.67149,,P6_3/mmc
JVASP-11774,Ba2CaWO6,FAILED_JVASP-11774.cif,0.609,3.874,mBJ,3.265,-3.06285,,C2/m
JVASP-9410,CdGa2O4,FAILED_JVASP-9410.cif,1.814,3.511,mBJ,1.697,-1.78745,,Fd-3m
JVASP-77560,BePRu2,FAILED_JVASP-77560.cif,0.0,0.0,mBJ,0.0,0.60682,,I4/mmm
JVASP-34219,SiO2,FAILED_JVASP-34219.cif,5.986,8.097,mBJ,2.111,-2.90122,,P3_221
JVASP-1091,ZrNiSn,FAILED_JVASP-1091.cif,0.486,0.501,mBJ,0.015,-0.71171,,F-43m
JVASP-27815,PH2F3,FAILED_JVASP-27815.cif,6.652,9.579,mBJ,2.927,-1.59229,,Cmc2_1
JVASP-30562,CoO2,FAILED_JVASP-30562.cif,0.0,0.0,mBJ,0.0,-0.98762,,C2
JVASP-10953,MgNi2O4,FAILED_JVASP-10953.cif,0.0,0.0,mBJ,0.0,-1.49583,,I4_1/a
JVASP-49834,LiNbTe3O12,FAILED_JVASP-49834.cif,1.708,2.252,mBJ,0.544,-1.42112,,P1
JVASP-42387,Mn2OF3,FAILED_JVASP-42387.cif,0.0,0.0,mBJ,0.0,-2.2604,,Imma
JVASP-30609,MgSnF4,FAILED_JVASP-30609.cif,3.696,4.709,mBJ,1.013,-3.0488,,P1
JVASP-57229,Cr3CuO8,FAILED_JVASP-57229.cif,0.093,0.0,mBJ,-0.093,-1.78018,,C2/m
JVASP-78313,MgCd,FAILED_JVASP-78313.cif,0.0,0.0,mBJ,0.0,-0.10802,,P4/mmm
JVASP-77079,Be2IrRh,FAILED_JVASP-77079.cif,0.0,0.0,mBJ,0.0,-0.40074,,C2/m
JVASP-55536,Dy2Be2GeO7,FAILED_JVASP-55536.cif,4.601,6.489,mBJ,1.888,-3.11308,,P-42_1m
JVASP-50021,CaPbI4,FAILED_JVASP-50021.cif,2.663,3.582,mBJ,0.919,-1.12853,,Cmmm
JVASP-8754,Ta2I5,FAILED_JVASP-8754.cif,0.0,0.478,mBJ,0.478,-0.01281,,P1
JVASP-30172,FeP2S6,FAILED_JVASP-30172.cif,0.0,0.265,mBJ,0.265,-0.19164,,P312
JVASP-45372,Tb2S3,FAILED_JVASP-45372.cif,0.619,1.504,mBJ,0.885,-2.26144,,Pnma
JVASP-29759,PbCN2,FAILED_JVASP-29759.cif,1.77,2.907,mBJ,1.137,0.04996,,Pnma
JVASP-50665,LiAgF3,FAILED_JVASP-50665.cif,0.213,0.156,mBJ,-0.057,-1.91858,,P-1
JVASP-30348,TmClO,FAILED_JVASP-30348.cif,4.848,6.986,mBJ,2.138,-3.33888,,R-3m
JVASP-50529,NbRhO4,FAILED_JVASP-50529.cif,0.854,0.796,mBJ,-0.058,-1.95817,,I4_1md
JVASP-317,TiS2,FAILED_JVASP-317.cif,0.0,0.51,HSE,0.51,-1.42046,,P-3m1
JVASP-30565,TiO2,FAILED_JVASP-30565.cif,2.324,2.68,mBJ,0.356,-3.06207,,R-3m
JVASP-4367,CrSb,FAILED_JVASP-4367.cif,0.0,0.0,mBJ,0.0,0.15333,,P6_3/mmc
JVASP-56763,TlSbSe2,FAILED_JVASP-56763.cif,0.709,1.171,mBJ,0.462,-0.35445,,P2_1
JVASP-55537,Dy2Sn2O7,FAILED_JVASP-55537.cif,2.899,4.384,mBJ,1.485,-2.78894,,Fd-3m
JVASP-50022,Rb2PrO3,FAILED_JVASP-50022.cif,0.0,0.0,mBJ,0.0,-2.05233,,Cmc2_1
JVASP-34264,Zn2P2O7,FAILED_JVASP-34264.cif,4.056,5.973,mBJ,1.917,-2.07366,,C2/m
JVASP-8755,LiS,FAILED_JVASP-8755.cif,0.0,0.0,mBJ,0.0,-0.68939,,Fm-3m
JVASP-50804,LiAgF2,FAILED_JVASP-50804.cif,0.628,3.162,mBJ,2.534,-2.0064,,I4_1/amd
JVASP-49915,Fe3Sn2S8,FAILED_JVASP-49915.cif,0.0,0.0,mBJ,0.0,-0.40786,,Imm2
JVASP-56597,Tb4Bi3,FAILED_JVASP-56597.cif,0.0,0.0,mBJ,0.0,-0.77553,,I-43d
JVASP-30173,SbOF,FAILED_JVASP-30173.cif,3.048,6.807,mBJ,3.759,-1.88282,,P2_1/c
JVASP-1157,GeTe,FAILED_JVASP-1157.cif,0.746,0.824,mBJ,0.078,-0.11035,,R3m
JVASP-9868,CaAg2O4,FAILED_JVASP-9868.cif,1.056,1.204,mBJ,0.148,-1.17057,,I4_1/a
JVASP-10165,MgBi2O4,FAILED_JVASP-10165.cif,2.281,4.08,mBJ,1.799,-1.77763,,C2/m
JVASP-36003,KNaICl,FAILED_JVASP-36003.cif,4.224,6.47,mBJ,2.246,-1.67803,,P4/mmm
JVASP-22666,OsCl4,FAILED_JVASP-22666.cif,0.0,2.018,mBJ,2.018,-0.37743,,Cmmm
JVASP-34660,SiO2,FAILED_JVASP-34660.cif,5.503,8.142,mBJ,2.639,-2.80524,,P1
JVASP-57824,NaCrF6,FAILED_JVASP-57824.cif,0.0,2.376,mBJ,2.376,-2.53976,,R-3
JVASP-77566,Be2PdRu,FAILED_JVASP-77566.cif,0.087,0.0,mBJ,-0.087,2.67626,,Immm
JVASP-78264,MnB2,FAILED_JVASP-78264.cif,0.0,0.0,mBJ,0.0,-0.23328,,P6/mmm
JVASP-4279,PBr3,FAILED_JVASP-4279.cif,2.992,3.99,HSE,0.998,-0.34675,,Pnma
JVASP-57484,SrTiSi2O7,FAILED_JVASP-57484.cif,3.662,3.727,mBJ,0.065,-3.13655,,Cmcm
JVASP-29048,Te3MoWS,FAILED_JVASP-29048.cif,0.0,0.128,mBJ,0.128,-0.23887,,P3m1
JVASP-30512,AuBrO2,FAILED_JVASP-30512.cif,0.678,0.908,mBJ,0.23,0.00331,,C222_1
JVASP-50533,Li5Ti3O8,FAILED_JVASP-50533.cif,0.0,2.745,mBJ,2.745,-2.83994,,R-3m
JVASP-9411,ErTaO4,FAILED_JVASP-9411.cif,4.059,5.332,mBJ,1.273,-3.52729,,P2/c
JVASP-11775,Na3MoNO3,FAILED_JVASP-11775.cif,3.81,4.575,mBJ,0.765,-1.74313,,Pmn2_1
JVASP-34265,AgClO4,FAILED_JVASP-34265.cif,2.4,5.707,mBJ,3.307,0.21198,,F-43m
JVASP-31950,PBr7,FAILED_JVASP-31950.cif,1.297,2.15,mBJ,0.853,-0.21077,,Pnma
JVASP-29558,BiBr3,FAILED_JVASP-29558.cif,2.69,3.434,mBJ,0.744,-0.74825,,C2/m
JVASP-78317,CeSe2,FAILED_JVASP-78317.cif,0.567,0.481,mBJ,-0.086,-1.27959,,Fmm2
JVASP-34663,RbSO4F,FAILED_JVASP-34663.cif,2.375,6.506,mBJ,4.131,-1.38524,,P-1
JVASP-34266,AlPO4,FAILED_JVASP-34266.cif,0.0,2.173,mBJ,2.173,-0.12353,,I-4m2
JVASP-8756,Ag2S,FAILED_JVASP-8756.cif,1.101,1.94,mBJ,0.839,-0.07414,,Cmcm
JVASP-56924,SmFe2Si2,FAILED_JVASP-56924.cif,0.0,0.0,mBJ,0.0,-0.6441,,I4/mmm
JVASP-207,GeS,FAILED_JVASP-207.cif,0.825,1.458,mBJ,0.633,-0.31385,,Cmcm
JVASP-49916,Tb2Pt2O7,FAILED_JVASP-49916.cif,1.429,1.551,mBJ,0.122,-2.22516,,Fd-3m
JVASP-77146,CdHgPd2,FAILED_JVASP-77146.cif,0.0,0.0,mBJ,0.0,0.30951,,I4/mmm
JVASP-32747,SiSe2,FAILED_JVASP-32747.cif,1.141,1.677,mBJ,0.536,0.27653,,Ibam
JVASP-9938,Ca2YSbO5,FAILED_JVASP-9938.cif,2.807,4.227,mBJ,1.42,-2.82856,,Cc
JVASP-1073,SiGe,FAILED_JVASP-1073.cif,0.403,1.097,mBJ,0.694,0.04533,,P6_3mc
JVASP-296,SnSe,FAILED_JVASP-296.cif,0.395,0.925,mBJ,0.53,-0.4708,,Cmcm
JVASP-12142,FeI2,FAILED_JVASP-12142.cif,0.0,0.0,mBJ,0.0,-0.0769,,P-3m1
JVASP-78449,TiH,FAILED_JVASP-78449.cif,0.0,0.0,mBJ,0.0,-0.31786,,Fm-3m
JVASP-78319,Sc,FAILED_JVASP-78319.cif,0.0,0.0,mBJ,0.0,0.04622,,Fm-3m
JVASP-4370,PrSb,FAILED_JVASP-4370.cif,0.0,0.0,mBJ,0.0,-0.97086,,P4/mmm
JVASP-50160,Rb2O,FAILED_JVASP-50160.cif,1.554,4.016,mBJ,2.462,-1.15188,,Immm
JVASP-8617,UCr2O6,FAILED_JVASP-8617.cif,0.0,0.0,mBJ,0.0,-2.50352,,P-31m
JVASP-78450,AgCl,FAILED_JVASP-78450.cif,0.644,2.669,mBJ,2.025,-0.35156,,Pm-3m
JVASP-9702,Ag3AsSe3,FAILED_JVASP-9702.cif,0.63,1.396,mBJ,0.766,-0.07439,,R3c
JVASP-9412,PrAlO3,FAILED_JVASP-9412.cif,4.142,5.108,mBJ,0.966,-3.54643,,R-3c
JVASP-42696,Li3CrCo3O8,FAILED_JVASP-42696.cif,0.0,0.0,mBJ,0.0,-1.70768,,R-3m
JVASP-10554,SbPO5,FAILED_JVASP-10554.cif,2.747,3.73,mBJ,0.983,-1.82739,,C2/c
JVASP-50536,LiNdO2,FAILED_JVASP-50536.cif,3.865,5.874,mBJ,2.009,-2.98858,,P2_1/c
JVASP-50997,H3NO,FAILED_JVASP-50997.cif,3.886,6.252,mBJ,2.366,-0.30101,,P2_12_12_1
JVASP-50851,Ni2H,FAILED_JVASP-50851.cif,0.0,0.0,mBJ,0.0,0.03128,,P-3m1
JVASP-78321,Mg,FAILED_JVASP-78321.cif,0.0,0.0,mBJ,0.0,0.20367,,P6/mmm
JVASP-59853,YCo3Se2ClO8,FAILED_JVASP-59853.cif,0.0,0.0,mBJ,0.0,-1.35185,,Pmmn
JVASP-28518,MoW2Se4S2,FAILED_JVASP-28518.cif,0.536,0.943,mBJ,0.407,-0.69095,,Cm
JVASP-36007,HfPd,FAILED_JVASP-36007.cif,0.0,0.0,mBJ,0.0,-0.6281,,Pm-3m
JVASP-57308,Tl2MoO4,FAILED_JVASP-57308.cif,3.145,3.526,mBJ,0.381,-1.69088,,P-3m1
JVASP-53032,CrO2,FAILED_JVASP-53032.cif,0.0,0.0,mBJ,0.0,-2.09942,,P4_2/mnm
JVASP-51362,YbH2,FAILED_JVASP-51362.cif,3.172,5.044,mBJ,1.872,-0.71478,,Pnma
JVASP-5224,HgI2,FAILED_JVASP-5224.cif,0.969,2.045,mBJ,1.076,-0.15478,,P4_2/nmc
JVASP-50316,LuH3O3,FAILED_JVASP-50316.cif,3.832,6.177,mBJ,2.345,-2.0613,,P6_3/m
JVASP-77567,H3S,FAILED_JVASP-77567.cif,0.0,0.0,mBJ,0.0,0.38644,,I4mm
JVASP-78273,RuN,FAILED_JVASP-78273.cif,0.0,0.0,mBJ,0.0,0.7777,,P-6m2
JVASP-30175,YIO,FAILED_JVASP-30175.cif,3.499,4.274,mBJ,0.775,-2.92224,,P4/nmm
JVASP-8757,HBr,FAILED_JVASP-8757.cif,4.657,6.082,mBJ,1.425,-0.18473,,Pnma
JVASP-10583,KHfCuS3,FAILED_JVASP-10583.cif,0.807,1.148,mBJ,0.341,-1.40235,,Cmcm
JVASP-85017,MgCuPd2,FAILED_JVASP-85017.cif,0.164,0.779,mBJ,0.615,1.90627,,Immm
JVASP-50914,PrAsO4,FAILED_JVASP-50914.cif,4.086,5.555,mBJ,1.469,-2.47462,,I4_1/a
JVASP-52621,K5As4,FAILED_JVASP-52621.cif,0.0,0.157,mBJ,0.157,-0.48379,,P-1
JVASP-78576,H,FAILED_JVASP-78576.cif,0.0,0.0,mBJ,0.0,0.41612,,P4/mmm
JVASP-5227,FeCl3,FAILED_JVASP-5227.cif,0.0,0.163,mBJ,0.163,-0.68532,,R-3
JVASP-78422,MgSe,FAILED_JVASP-78422.cif,2.117,2.969,mBJ,0.852,-1.34872,,Fm-3m
JVASP-77162,LiBe2Au,FAILED_JVASP-77162.cif,0.0,0.0,mBJ,0.0,-0.22368,,C2/m
JVASP-1136,BaF2,FAILED_JVASP-1136.cif,6.82,9.284,mBJ,2.464,-4.05994,,Fm-3m
JVASP-78488,YMn2,FAILED_JVASP-78488.cif,0.0,0.0,mBJ,0.0,0.60448,,F-43m
JVASP-78326,V,FAILED_JVASP-78326.cif,0.0,0.0,mBJ,0.0,-1e-05,,Im-3m
JVASP-30566,TiZnBi2O6,FAILED_JVASP-30566.cif,0.896,0.816,mBJ,-0.08,-1.9357,,P4mm
JVASP-78741,TiTeOs,FAILED_JVASP-78741.cif,0.416,0.746,mBJ,0.33,-0.32634,,F-43m
JVASP-78529,Li2Te,FAILED_JVASP-78529.cif,2.605,3.044,mBJ,0.439,-1.11191,,Fm-3m
JVASP-9703,ZnRh2O4,FAILED_JVASP-9703.cif,1.08,1.211,mBJ,0.131,-1.09694,,Fd-3m
JVASP-78577,LiO2,FAILED_JVASP-78577.cif,0.0,0.0,mBJ,0.0,-0.19907,,Fm-3m
JVASP-34221,LiGeBO4,FAILED_JVASP-34221.cif,2.808,3.569,mBJ,0.761,-2.02421,,Fmm2
JVASP-78742,CaAgP,FAILED_JVASP-78742.cif,0.0,0.034,mBJ,0.034,-0.18805,,F-43m
JVASP-85032,Be2RuRh,FAILED_JVASP-85032.cif,0.0,0.0,mBJ,0.0,-0.33826,,C2/m
JVASP-30673,YVF5,FAILED_JVASP-30673.cif,0.029,0.0,mBJ,-0.029,-3.14728,,Immm
JVASP-77187,CuHgPd2,FAILED_JVASP-77187.cif,0.101,0.099,mBJ,-0.002,1.994,,Immm
JVASP-50852,ZrTiO4,FAILED_JVASP-50852.cif,2.659,2.916,mBJ,0.257,-3.45761,,P1
JVASP-52629,V2N,FAILED_JVASP-52629.cif,0.0,0.0,mBJ,0.0,-1.05482,,P-31m
JVASP-8270,SnO2,FAILED_JVASP-8270.cif,0.0,1.514,mBJ,1.514,-1.09796,,P6_3/mmc
JVASP-78455,RbP,FAILED_JVASP-78455.cif,0.0,0.0,mBJ,0.0,0.47141,,R-3m
JVASP-78675,CuAu,FAILED_JVASP-78675.cif,0.0,0.0,mBJ,0.0,-0.05114,,P4/mmm
JVASP-52127,Nb10C7,FAILED_JVASP-52127.cif,0.0,0.0,mBJ,0.0,-0.51065,,C2/m
JVASP-10481,K2NaAlAs2,FAILED_JVASP-10481.cif,1.248,2.529,mBJ,1.281,-0.66742,,Ibam
JVASP-8348,ZnWF6,FAILED_JVASP-8348.cif,0.0,0.0,mBJ,0.0,-2.48348,,R-3
JVASP-78743,AlVNi,FAILED_JVASP-78743.cif,0.0,0.0,mBJ,0.0,0.31272,,F-43m
JVASP-78795,WS2,FAILED_JVASP-78795.cif,1.824,1.86,mBJ,0.036,-0.99567,,P-6m2
JVASP-85040,Ca3Mg,FAILED_JVASP-85040.cif,0.0,0.0,mBJ,0.0,-0.02259,,P4/mmm
JVASP-8350,CaWF6,FAILED_JVASP-8350.cif,0.0,0.0,mBJ,0.0,-3.13743,,R-3
JVASP-52128,SiO,FAILED_JVASP-52128.cif,0.0,0.792,mBJ,0.792,-1.81992,,P6_422
JVASP-22667,CaBr2,FAILED_JVASP-22667.cif,4.549,5.845,mBJ,1.296,-2.14848,,Pnnm
JVASP-85041,BrCl,FAILED_JVASP-85041.cif,1.637,2.924,mBJ,1.287,-0.03564,,Cmcm
JVASP-36009,VCo,FAILED_JVASP-36009.cif,0.0,0.0,mBJ,0.0,-0.06592,,Pm-3m
JVASP-78329,Sn,FAILED_JVASP-78329.cif,0.0,0.0,mBJ,0.0,0.06313,,I4/mmm
JVASP-28445,LuTe3,FAILED_JVASP-28445.cif,0.0,0.0,mBJ,0.0,-0.52522,,Cmcm
JVASP-30568,V2O5,FAILED_JVASP-30568.cif,2.018,2.417,mBJ,0.399,-2.3548,,Cmcm
JVASP-85069,KBaAu2,FAILED_JVASP-85069.cif,0.176,3.042,mBJ,2.866,0.526,,Immm
JVASP-34268,Na4CO4,FAILED_JVASP-34268.cif,2.559,6.421,mBJ,3.862,-1.40883,,P-43m
JVASP-22634,P3N5,FAILED_JVASP-22634.cif,3.849,5.37,mBJ,1.521,-0.30675,,C2/c
JVASP-78797,BaCN2,FAILED_JVASP-78797.cif,2.872,5.07,mBJ,2.198,-0.87903,,R-3m
JVASP-54812,GaNi2,FAILED_JVASP-54812.cif,0.0,0.0,mBJ,0.0,-0.31139,,P6_3/mmc
JVASP-57374,K3VSO3,FAILED_JVASP-57374.cif,2.915,3.398,mBJ,0.483,-2.14649,,P2_1/m
JVASP-9413,S3N2O2,FAILED_JVASP-9413.cif,1.498,2.27,mBJ,0.772,-0.17874,,C2/c
JVASP-11302,CrF5,FAILED_JVASP-11302.cif,0.0,0.0,mBJ,0.0,-2.25083,,C2/c
JVASP-9180,Si3N4,FAILED_JVASP-9180.cif,4.461,5.62,mBJ,1.159,-1.1925,,P6_3/m
JVASP-78458,AgBr,FAILED_JVASP-78458.cif,0.142,1.978,mBJ,1.836,-0.17248,,Pm-3m
JVASP-34269,AlBiO3,FAILED_JVASP-34269.cif,2.917,3.945,mBJ,1.028,-2.32721,,R3c
JVASP-167,MgI2,FAILED_JVASP-167.cif,3.625,4.46,HSE,0.835,-1.12563,,P-3m1
JVASP-52129,Ti9O10,FAILED_JVASP-52129.cif,0.0,0.0,mBJ,0.0,-2.67431,,P-1
JVASP-78746,NaYSn,FAILED_JVASP-78746.cif,0.169,0.557,mBJ,0.388,-0.07753,,F-43m
JVASP-29792,FeHO2,FAILED_JVASP-29792.cif,0.0,0.0,mBJ,0.0,-1.2046,,Pnma
JVASP-29642,MgCl2,FAILED_JVASP-29642.cif,4.641,7.122,mBJ,2.481,-1.8136,,C2/m
JVASP-78280,Mn2Sb,FAILED_JVASP-78280.cif,0.0,0.0,mBJ,0.0,0.14319,,F-43m
JVASP-78425,Cu,FAILED_JVASP-78425.cif,0.0,0.0,mBJ,0.0,0.12513,,Cmcm
JVASP-12929,Ag2PdCl4,FAILED_JVASP-12929.cif,0.942,1.038,mBJ,0.096,-0.46505,,Cmce
JVASP-78331,Mg,FAILED_JVASP-78331.cif,0.0,0.0,mBJ,0.0,0.03279,,I4/mmm
JVASP-85099,Ca2TlSn,FAILED_JVASP-85099.cif,0.0,0.0,mBJ,0.0,1.31612,,Immm
JVASP-78579,BeF2,FAILED_JVASP-78579.cif,7.005,11.26,mBJ,4.255,-2.98015,,Cmmm
JVASP-11780,MgCrO4,FAILED_JVASP-11780.cif,2.228,2.522,mBJ,0.294,-2.33174,,Cmcm
JVASP-9314,BaSb4O8,FAILED_JVASP-9314.cif,0.0,0.0,mBJ,0.0,-1.47345,,P-31m
JVASP-11200,Na2PtSe2,FAILED_JVASP-11200.cif,0.995,1.578,mBJ,0.583,-0.85503,,Cmc2_1
JVASP-57881,Hf2Al3,FAILED_JVASP-57881.cif,0.0,0.0,mBJ,0.0,-0.42082,,Fdd2
JVASP-28519,Mo3Se4S2,FAILED_JVASP-28519.cif,0.548,0.566,mBJ,0.018,-0.74882,,P-6m2
JVASP-85112,CuSbPd2,FAILED_JVASP-85112.cif,0.256,0.274,mBJ,0.018,1.92963,,Immm
JVASP-78332,Sc,FAILED_JVASP-78332.cif,0.0,0.0,mBJ,0.0,0.10932,,Im-3m
JVASP-78684,MnSnPt,FAILED_JVASP-78684.cif,0.0,0.0,mBJ,0.0,-0.04212,,F-43m
JVASP-78748,NaLiTe,FAILED_JVASP-78748.cif,2.072,3.046,mBJ,0.974,-0.7432,,F-43m
JVASP-9414,ZrSO,FAILED_JVASP-9414.cif,2.448,2.935,mBJ,0.487,-2.72995,,P2_13
JVASP-85121,InCl,FAILED_JVASP-85121.cif,1.594,1.751,mBJ,0.157,-0.91729,,Cmcm
JVASP-50915,SmAgO2,FAILED_JVASP-50915.cif,2.756,3.31,mBJ,0.554,-2.36009,,P6_3/mmc
JVASP-57379,Bi2WO6,FAILED_JVASP-57379.cif,2.292,3.19,mBJ,0.898,-1.92338,,P-1
JVASP-30513,CuO2F,FAILED_JVASP-30513.cif,0.0,0.121,mBJ,0.121,-0.76384,,C222_1
JVASP-49176,SnPS3,FAILED_JVASP-49176.cif,1.942,2.377,mBJ,0.435,-0.42073,,Pc
JVASP-78284,MnN,FAILED_JVASP-78284.cif,0.074,0.0,mBJ,-0.074,-0.43965,,F-43m
JVASP-49866,Al2O3,FAILED_JVASP-49866.cif,6.187,7.487,mBJ,1.3,-3.23234,,R-3
JVASP-78750,CaMgSn,FAILED_JVASP-78750.cif,0.0,0.0,mBJ,0.0,-0.37727,,F-43m
JVASP-85122,InP,FAILED_JVASP-85122.cif,0.375,1.427,mBJ,1.052,-0.21707,,P6_3mc
JVASP-13406,Rb4PbBr6,FAILED_JVASP-13406.cif,3.945,4.975,mBJ,1.03,-1.63774,,R-3c
JVASP-36010,VH,FAILED_JVASP-36010.cif,0.0,0.0,mBJ,0.0,-0.12737,,Fm-3m
JVASP-78285,MnSb,FAILED_JVASP-78285.cif,0.0,0.022,mBJ,0.022,0.21714,,Fm-3m
JVASP-1130,LiF,FAILED_JVASP-1130.cif,9.479,11.219,mBJ,1.74,-3.15454,,Fm-3m
JVASP-78428,Cr,FAILED_JVASP-78428.cif,0.0,0.0,mBJ,0.0,0.30352,,Cmcm
JVASP-78751,LiAgTe,FAILED_JVASP-78751.cif,0.0,0.45,mBJ,0.45,-0.44045,,F-43m
JVASP-57006,Lu2C3N6,FAILED_JVASP-57006.cif,3.759,4.571,mBJ,0.812,-0.87056,,R32
JVASP-5320,ZrTi2O,FAILED_JVASP-5320.cif,0.0,0.0,mBJ,0.0,-1.17772,,P6/mmm
JVASP-53634,Ag3SI,FAILED_JVASP-53634.cif,0.213,1.308,mBJ,1.095,-0.09637,,P2_1
JVASP-78583,NaBeSb,FAILED_JVASP-78583.cif,1.195,1.613,mBJ,0.418,-0.10772,,F-43m
JVASP-56768,PrCoC2,FAILED_JVASP-56768.cif,0.0,0.0,mBJ,0.0,-0.33053,,Cc
JVASP-78544,Na,FAILED_JVASP-78544.cif,0.0,23.901,mBJ,23.901,0.13636,,Pm-3m
JVASP-4825,NaMgF3,FAILED_JVASP-4825.cif,7.152,10.917,mBJ,3.765,-3.43143,,Cmcm
JVASP-78685,MnNiSb,FAILED_JVASP-78685.cif,0.0,0.0,mBJ,0.0,-0.12716,,F-43m
JVASP-36172,Cr3Ni,FAILED_JVASP-36172.cif,0.0,0.0,mBJ,0.0,0.12602,,Pm-3m
JVASP-50916,SrSc2O4,FAILED_JVASP-50916.cif,3.542,4.654,mBJ,1.112,-3.56468,,Fd-3m
JVASP-8388,MoWO6,FAILED_JVASP-8388.cif,2.134,2.106,mBJ,-0.028,-2.23156,,P1
JVASP-11423,RbSm2CuSe4,FAILED_JVASP-11423.cif,0.885,1.177,mBJ,0.292,-1.58075,,Cmcm
JVASP-78752,LiScSi,FAILED_JVASP-78752.cif,0.46,0.773,mBJ,0.313,-0.01666,,F-43m
JVASP-11781,TbVO4,FAILED_JVASP-11781.cif,2.786,3.315,mBJ,0.529,-3.23036,,I4_1/amd
JVASP-78753,MgScTl,FAILED_JVASP-78753.cif,0.0,0.0,mBJ,0.0,0.2033,,F-43m
JVASP-170,MgCl2,FAILED_JVASP-170.cif,5.641,6.86,HSE,1.219,-1.98098,,R-3m
JVASP-78584,BaAuCl,FAILED_JVASP-78584.cif,2.263,2.502,mBJ,0.239,-1.33297,,F-43m
JVASP-78494,CaO2,FAILED_JVASP-78494.cif,2.564,3.692,mBJ,1.128,-2.14266,,C2/m
JVASP-78431,Pr,FAILED_JVASP-78431.cif,0.0,0.0,mBJ,0.0,0.00585,,Fm-3m
JVASP-30569,SnO2,FAILED_JVASP-30569.cif,1.477,3.043,mBJ,1.566,-1.60225,,R-3m
JVASP-78464,TiAl,FAILED_JVASP-78464.cif,0.0,0.0,mBJ,0.0,-0.40982,,P4/mmm