material_id,formula,cif_path,pbe_bandgap,hse_bandgap,gap_type,correction,formation_energy,total_energy,spacegroup
JVASP-52890,KGaH4,FAILED_JVASP-52890.cif,5.097,7.11,mBJ,2.013,-0.22689,,Pnma
JVASP-44256,Li3FeO4,FAILED_JVASP-44256.cif,0.0,0.0,mBJ,0.0,-1.7852,,I4/mmm
JVASP-15812,YbRbO2,FAILED_JVASP-15812.cif,0.0,0.0,mBJ,0.0,-2.19313,,R-3m
JVASP-64728,Ba4ScCd,FAILED_JVASP-64728.cif,0.0,0.0,mBJ,0.0,0.51398,,F-43m
JVASP-63427,Tb3Sb4Au3,FAILED_JVASP-63427.cif,0.605,0.648,mBJ,0.043,-0.83818,,I-43d
JVASP-3291,TbOF,FAILED_JVASP-3291.cif,5.212,7.041,mBJ,1.829,-4.12793,,R-3m
JVASP-66333,Ba4CrFe,FAILED_JVASP-66333.cif,0.0,0.0,mBJ,0.0,1.40479,,F-43m
JVASP-66577,Ba4GaTc,FAILED_JVASP-66577.cif,0.0,0.0,mBJ,0.0,1.0896,,F-43m
JVASP-15038,ErCo5,FAILED_JVASP-15038.cif,0.0,0.0,mBJ,0.0,-0.14642,,P6/mmm
JVASP-86802,MgH2,FAILED_JVASP-86802.cif,2.921,4.541,mBJ,1.62,-0.25795,,Pa-3
JVASP-65679,Ba2LiV,FAILED_JVASP-65679.cif,0.0,0.0,mBJ,0.0,0.81588,,Fm-3m
JVASP-66140,BaSeBr,FAILED_JVASP-66140.cif,0.0,0.0,mBJ,0.0,-1.47785,,F-43m
JVASP-66215,Ba4GaFe,FAILED_JVASP-66215.cif,0.0,0.0,mBJ,0.0,1.04065,,F-43m
JVASP-61798,GaAsO4,FAILED_JVASP-61798.cif,3.198,5.01,mBJ,1.812,-1.52689,,P3_121
JVASP-3879,Tl2SnCl6,FAILED_JVASP-3879.cif,2.148,3.22,mBJ,1.072,-1.06573,,Fm-3m
JVASP-42251,FeOF,FAILED_JVASP-42251.cif,0.0,0.0,mBJ,0.0,-1.72319,,P1
JVASP-65639,Ba2GeBi,FAILED_JVASP-65639.cif,0.0,0.0,mBJ,0.0,-0.59926,,Fm-3m
JVASP-65535,K2BaV,FAILED_JVASP-65535.cif,0.0,0.0,mBJ,0.0,0.65139,,P4mm
JVASP-85951,Pr2Ta2Cl2O7,FAILED_JVASP-85951.cif,3.147,4.166,mBJ,1.019,-3.18205,,C2/m
JVASP-66422,Ba4GaIr,FAILED_JVASP-66422.cif,0.0,0.0,mBJ,0.0,0.77595,,F-43m
JVASP-86756,Fe2B,FAILED_JVASP-86756.cif,0.0,0.0,mBJ,0.0,0.07844,,P4/mmm
JVASP-1192,CdSe,FAILED_JVASP-1192.cif,0.455,1.84,mBJ,1.385,-0.58943,,F-43m
JVASP-42333,Mn2OF3,FAILED_JVASP-42333.cif,0.0,0.0,mBJ,0.0,-2.24995,,Cmcm
JVASP-66298,BaNaZr,FAILED_JVASP-66298.cif,0.0,0.0,mBJ,0.0,1.29207,,F-43m
JVASP-69009,BaCa2Y,FAILED_JVASP-69009.cif,0.0,0.0,mBJ,0.0,0.09542,,P4/mmm
JVASP-65490,BaTaMn2,FAILED_JVASP-65490.cif,0.0,0.0,mBJ,0.0,0.59004,,P4/mmm
JVASP-66578,BaCdSe,FAILED_JVASP-66578.cif,1.6,1.913,mBJ,0.313,-0.95616,,F-43m
JVASP-62342,AlVO4,FAILED_JVASP-62342.cif,2.96,3.216,mBJ,0.256,-2.8188,,P-1
JVASP-66105,Ba4HgMo,FAILED_JVASP-66105.cif,0.0,0.0,mBJ,0.0,1.0082,,F-43m
JVASP-66141,BaNbTe,FAILED_JVASP-66141.cif,0.0,0.0,mBJ,0.0,0.78659,,F-43m
JVASP-65602,BaGaBr2,FAILED_JVASP-65602.cif,0.0,2.982,mBJ,2.982,-1.23916,,P4/mmm
JVASP-63205,CaAs2O6,FAILED_JVASP-63205.cif,3.479,4.814,mBJ,1.335,-1.87735,,P-31m
JVASP-65750,Ba2TiCl,FAILED_JVASP-65750.cif,0.0,0.0,mBJ,0.0,-0.11599,,Fm-3m
JVASP-66494,BaInBr,FAILED_JVASP-66494.cif,0.0,0.0,mBJ,0.0,-0.62564,,F-43m
JVASP-66423,Ba4TiV,FAILED_JVASP-66423.cif,0.0,0.0,mBJ,0.0,1.45864,,F-43m
JVASP-69126,Ba2ScBi,FAILED_JVASP-69126.cif,0.0,0.0,mBJ,0.0,-0.13999,,Fm-3m
JVASP-61342,ZnGeAs2,FAILED_JVASP-61342.cif,0.079,1.073,mBJ,0.994,-0.15207,,I-42d
JVASP-18490,CuAuF5,FAILED_JVASP-18490.cif,0.0,0.0,mBJ,0.0,-1.31363,,P-1
JVASP-66299,Ba4TeIr,FAILED_JVASP-66299.cif,0.0,0.0,mBJ,0.0,0.35655,,F-43m
JVASP-91678,SnPbS2,FAILED_JVASP-91678.cif,0.0,0.0,mBJ,0.0,-0.04129,,Pmm2
JVASP-66257,BaSrMo,FAILED_JVASP-66257.cif,0.0,0.0,mBJ,0.0,1.56509,,F-43m
JVASP-66335,BaBiCl,FAILED_JVASP-66335.cif,0.0,0.0,mBJ,0.0,-0.83738,,F-43m
JVASP-69047,BaLiNi2,FAILED_JVASP-69047.cif,0.0,0.0,mBJ,0.0,0.35503,,I4/mmm
JVASP-69372,BaP2Pb,FAILED_JVASP-69372.cif,0.0,0.0,mBJ,0.0,-0.2168,,P4mm
JVASP-66613,BaLiMg,FAILED_JVASP-66613.cif,0.0,0.0,mBJ,0.0,0.40036,,F-43m
JVASP-66579,Ba4MoP,FAILED_JVASP-66579.cif,0.0,0.0,mBJ,0.0,1.02182,,F-43m
JVASP-91581,SmAu,FAILED_JVASP-91581.cif,0.0,0.0,mBJ,0.0,-0.89757,,Pnma
JVASP-66106,BaInBi,FAILED_JVASP-66106.cif,0.291,0.377,mBJ,0.086,-0.3024,,F-43m
JVASP-69087,BaIrCl2,FAILED_JVASP-69087.cif,0.0,0.0,mBJ,0.0,-0.50829,,Pmm2
JVASP-62345,As2PbO6,FAILED_JVASP-62345.cif,2.27,3.161,mBJ,0.891,-1.34689,,P-31m
JVASP-66216,BaHgPb,FAILED_JVASP-66216.cif,0.0,0.0,mBJ,0.0,-0.01451,,F-43m
JVASP-87072,PF5,FAILED_JVASP-87072.cif,7.356,9.831,mBJ,2.475,-2.57302,,P6_3/mmc
JVASP-66424,Ba4TiRh,FAILED_JVASP-66424.cif,0.0,0.0,mBJ,0.0,1.05614,,F-43m
JVASP-66647,Ba4NbRu,FAILED_JVASP-66647.cif,0.0,0.0,mBJ,0.0,1.46818,,F-43m
JVASP-65569,BaMn2Cl,FAILED_JVASP-65569.cif,0.0,0.0,mBJ,0.0,0.1065,,P4/mmm
JVASP-66172,Ba4InTc,FAILED_JVASP-66172.cif,0.0,0.0,mBJ,0.0,0.99569,,F-43m
JVASP-66463,BaCrTe,FAILED_JVASP-66463.cif,0.0,0.0,mBJ,0.0,0.13859,,F-43m
JVASP-86297,HgC2Se2N2,FAILED_JVASP-86297.cif,2.006,2.998,mBJ,0.992,0.43883,,P2_1/c
JVASP-66258,Ba4ZnMo,FAILED_JVASP-66258.cif,0.0,0.0,mBJ,0.0,1.21376,,F-43m
JVASP-63287,CaB2H8,FAILED_JVASP-63287.cif,5.101,6.721,mBJ,1.62,-0.39042,,C2/c
JVASP-63208,LuMn4Al8,FAILED_JVASP-63208.cif,0.0,0.0,mBJ,0.0,-0.33891,,I4/mmm
JVASP-91630,SrZnSbF,FAILED_JVASP-91630.cif,0.0,0.709,mBJ,0.709,-1.88983,,P4/nmm
JVASP-69288,BaCaBr2,FAILED_JVASP-69288.cif,0.0,0.0,mBJ,0.0,-1.57027,,P4mm
JVASP-86934,NaLaTiO4,FAILED_JVASP-86934.cif,2.469,3.385,mBJ,0.916,-3.21388,,P4/nmm
JVASP-66142,BaCaCd,FAILED_JVASP-66142.cif,0.0,0.0,mBJ,0.0,0.2897,,F-43m
JVASP-92172,H3W,FAILED_JVASP-92172.cif,0.0,0.0,mBJ,0.0,0.10026,,P2_1/m
JVASP-66497,Ba4TcIr,FAILED_JVASP-66497.cif,0.0,0.0,mBJ,0.0,1.38429,,F-43m
JVASP-69218,BaZrBi2,FAILED_JVASP-69218.cif,0.0,0.0,mBJ,0.0,-0.25631,,P4/mmm
JVASP-92222,TiOF2,FAILED_JVASP-92222.cif,1.859,2.246,mBJ,0.387,-3.28956,,P4_2/mmc
JVASP-86635,LaN,FAILED_JVASP-86635.cif,1.465,2.313,mBJ,0.848,-1.48144,,P6_3mc
JVASP-66464,Ba4OsSe,FAILED_JVASP-66464.cif,0.0,0.065,mBJ,0.065,0.72261,,F-43m
JVASP-91721,SiBr3,FAILED_JVASP-91721.cif,3.946,5.117,mBJ,1.171,-0.71789,,C2/m
JVASP-66259,BaCaPb,FAILED_JVASP-66259.cif,0.0,0.21,mBJ,0.21,-0.03042,,F-43m
JVASP-69329,Ba2BiBr,FAILED_JVASP-69329.cif,0.939,1.287,mBJ,0.348,-1.48342,,Fm-3m
JVASP-66300,BaTlTe,FAILED_JVASP-66300.cif,0.0,1.914,mBJ,1.914,-0.63328,,F-43m
JVASP-63288,NdSnAu,FAILED_JVASP-63288.cif,0.0,0.0,mBJ,0.0,-0.85443,,P6_3mc
JVASP-65537,Ba2NbTl,FAILED_JVASP-65537.cif,0.0,0.0,mBJ,0.0,0.49163,,Fm-3m
JVASP-66342,BaNbBr,FAILED_JVASP-66342.cif,0.0,0.0,mBJ,0.0,0.71522,,F-43m
JVASP-66614,BaNaBi,FAILED_JVASP-66614.cif,0.318,1.124,mBJ,0.806,-0.38821,,F-43m
JVASP-66536,Ba2PdBr,FAILED_JVASP-66536.cif,0.0,0.859,mBJ,0.859,-1.06579,,Fm-3m
JVASP-87002,CeNbO4,FAILED_JVASP-87002.cif,0.0,0.0,mBJ,0.0,-3.22421,,C2/c
JVASP-86121,LiBH2,FAILED_JVASP-86121.cif,0.543,0.677,mBJ,0.134,0.1788,,Pnma
JVASP-3882,Tl2TeCl6,FAILED_JVASP-3882.cif,2.411,2.947,mBJ,0.536,-0.8507,,Fm-3m
JVASP-86326,ThSi2Os2,FAILED_JVASP-86326.cif,0.0,0.0,mBJ,0.0,-0.73843,,I4/mmm
JVASP-63442,NaBH4,FAILED_JVASP-63442.cif,6.432,8.517,mBJ,2.085,-0.37234,,P4_2/nmc
JVASP-62645,BC7,FAILED_JVASP-62645.cif,0.0,0.0,mBJ,0.0,0.1856,,Pmm2
JVASP-62356,Zn3BPO7,FAILED_JVASP-62356.cif,3.497,5.436,mBJ,1.939,-2.03535,,Cm
JVASP-66581,BaInSb,FAILED_JVASP-66581.cif,0.424,0.557,mBJ,0.133,-0.34384,,F-43m
JVASP-66067,BaLiSn,FAILED_JVASP-66067.cif,0.0,0.0,mBJ,0.0,0.06887,,F-43m
JVASP-65604,Ba2TiTe,FAILED_JVASP-65604.cif,0.0,0.0,mBJ,0.0,-0.16731,,Fm-3m
JVASP-85330,RbC2I3N2,FAILED_JVASP-85330.cif,2.943,3.532,mBJ,0.589,-0.01096,,Pmmn
JVASP-69373,BaMnCr2,FAILED_JVASP-69373.cif,0.0,0.0,mBJ,0.0,1.60348,,P4/mmm
JVASP-65753,BaSr2Te,FAILED_JVASP-65753.cif,0.0,0.0,mBJ,0.0,-0.78582,,P4mm
JVASP-69255,BaGaCl2,FAILED_JVASP-69255.cif,0.0,2.459,mBJ,2.459,-1.49661,,P4/mmm
JVASP-61358,BAsO4,FAILED_JVASP-61358.cif,4.145,5.556,mBJ,1.411,-1.71421,,P3_121
JVASP-66263,BaLiY,FAILED_JVASP-66263.cif,0.0,0.0,mBJ,0.0,0.83126,,F-43m
JVASP-66144,Ba4MnV,FAILED_JVASP-66144.cif,0.0,0.0,mBJ,0.0,1.35418,,F-43m
JVASP-65493,BaRu2W,FAILED_JVASP-65493.cif,0.0,0.0,mBJ,0.0,0.59213,,P4mm
JVASP-66302,Ba4NiMo,FAILED_JVASP-66302.cif,0.0,0.0,mBJ,0.0,1.36351,,F-43m
JVASP-48686,Li4Fe3O2F6,FAILED_JVASP-48686.cif,0.033,0.0,mBJ,-0.033,-2.27737,,P-1
JVASP-85686,Na2ZnH4Se2O10,FAILED_JVASP-85686.cif,3.287,4.641,mBJ,1.354,-1.17407,,P-1
JVASP-86468,CuSnF6,FAILED_JVASP-86468.cif,0.0,0.0,mBJ,0.0,-2.17048,,P-1
JVASP-66108,Ba4RuBr,FAILED_JVASP-66108.cif,0.0,0.0,mBJ,0.0,0.59668,,F-43m
JVASP-65415,BaHfCu2,FAILED_JVASP-65415.cif,0.0,0.0,mBJ,0.0,0.23601,,P4mm
JVASP-66068,BaTeSe,FAILED_JVASP-66068.cif,0.0,0.0,mBJ,0.0,-0.84221,,F-43m
JVASP-62522,KAs2F7,FAILED_JVASP-62522.cif,4.933,7.17,mBJ,2.237,-2.4084,,P2_1/c
JVASP-66384,Ba4TiPt,FAILED_JVASP-66384.cif,0.0,0.0,mBJ,0.0,0.93534,,F-43m
JVASP-62158,TiCrAs,FAILED_JVASP-62158.cif,0.0,0.0,mBJ,0.0,-0.55209,,P-62m
JVASP-66650,BaInMo,FAILED_JVASP-66650.cif,0.0,0.0,mBJ,0.0,1.44033,,F-43m
JVASP-85406,ZrFeF6,FAILED_JVASP-85406.cif,0.0,0.0,mBJ,0.0,-3.16912,,R-3
JVASP-66539,Ba4MoRh,FAILED_JVASP-66539.cif,0.0,0.0,mBJ,0.0,1.32513,,F-43m
JVASP-15438,YCr2Si2,FAILED_JVASP-15438.cif,0.0,0.0,mBJ,0.0,-0.39508,,I4/mmm
JVASP-65754,BaZr4Pd,FAILED_JVASP-65754.cif,0.0,0.0,mBJ,0.0,0.46254,,F-43m
JVASP-65801,BaSrCl2,FAILED_JVASP-65801.cif,0.0,0.0,mBJ,0.0,-1.88942,,P4mm
JVASP-66223,BaMgIn,FAILED_JVASP-66223.cif,0.0,0.0,mBJ,0.0,0.20288,,F-43m
JVASP-22724,NaLi2Bi,FAILED_JVASP-22724.cif,0.504,0.931,mBJ,0.427,-0.54587,,Fm-3m
JVASP-65717,BaNa2Hg,FAILED_JVASP-65717.cif,0.0,0.0,mBJ,0.0,-0.07723,,P4/mmm
JVASP-66583,Ba4ScIr,FAILED_JVASP-66583.cif,0.0,0.0,mBJ,0.0,0.95842,,F-43m
JVASP-65684,K2BaV,FAILED_JVASP-65684.cif,0.0,0.0,mBJ,0.0,0.65144,,P4mm
JVASP-65570,BaPIr2,FAILED_JVASP-65570.cif,0.0,0.0,mBJ,0.0,0.58313,,P4/mmm
JVASP-69093,BaHf4Cu,FAILED_JVASP-69093.cif,0.0,0.0,mBJ,0.0,0.76484,,F-43m
JVASP-60798,B,FAILED_JVASP-60798.cif,1.642,1.946,mBJ,0.304,0.02302,,Pnnm
JVASP-66468,Ba4TaSi,FAILED_JVASP-66468.cif,0.0,0.0,mBJ,0.0,1.13552,,F-43m
JVASP-66386,Ba4GePt,FAILED_JVASP-66386.cif,0.0,0.0,mBJ,0.0,0.42952,,F-43m
JVASP-69219,BaYPd2,FAILED_JVASP-69219.cif,0.0,0.0,mBJ,0.0,-0.40589,,I-4m2
JVASP-66071,BaNaNb,FAILED_JVASP-66071.cif,0.0,0.0,mBJ,0.0,1.55655,,F-43m
JVASP-69094,BaCoBr2,FAILED_JVASP-69094.cif,0.0,0.0,mBJ,0.0,-0.62819,,P4/mmm
JVASP-49842,TmTlO2,FAILED_JVASP-49842.cif,1.443,2.166,mBJ,0.723,-2.62696,,R-3m
JVASP-66264,BaSrTa,FAILED_JVASP-66264.cif,0.0,0.0,mBJ,0.0,1.70533,,F-43m
JVASP-66174,Ba4ZnTc,FAILED_JVASP-66174.cif,0.0,0.0,mBJ,0.0,1.13177,,F-43m
JVASP-69170,BaNi2Br,FAILED_JVASP-69170.cif,0.0,0.0,mBJ,0.0,0.13078,,Pmmm
JVASP-69053,BaCaTi4,FAILED_JVASP-69053.cif,0.0,0.0,mBJ,0.0,0.58435,,F-43m
JVASP-65605,BaSr2Te,FAILED_JVASP-65605.cif,0.0,0.0,mBJ,0.0,-0.78584,,P4mm
JVASP-69374,Ba2YMn,FAILED_JVASP-69374.cif,0.0,0.0,mBJ,0.0,0.62675,,Fm-3m
JVASP-65538,BaTi2Cu,FAILED_JVASP-65538.cif,0.0,0.0,mBJ,0.0,0.75953,,I4/mmm
JVASP-69332,BaTePd2,FAILED_JVASP-69332.cif,0.0,0.0,mBJ,0.0,-0.45804,,P4/mmm
JVASP-66111,Ba4CdIr,FAILED_JVASP-66111.cif,0.0,0.0,mBJ,0.0,0.72609,,F-43m
JVASP-66651,BaTePb,FAILED_JVASP-66651.cif,0.0,0.0,mBJ,0.0,-0.42097,,F-43m
JVASP-66344,Ba4RhPb,FAILED_JVASP-66344.cif,0.0,0.0,mBJ,0.0,0.5223,,F-43m
JVASP-3885,Tl2PtCl6,FAILED_JVASP-3885.cif,1.631,2.119,mBJ,0.488,-0.83073,,Fm-3m
JVASP-69016,Ba2ScHg,FAILED_JVASP-69016.cif,0.0,0.0,mBJ,0.0,0.11288,,Fm-3m
JVASP-63583,SrCu2B2O6,FAILED_JVASP-63583.cif,0.031,0.758,mBJ,0.727,-2.04857,,I4/mcm
JVASP-66541,BaNaGa,FAILED_JVASP-66541.cif,0.0,0.0,mBJ,0.0,0.22878,,F-43m
JVASP-63743,BN,FAILED_JVASP-63743.cif,3.655,5.336,mBJ,1.681,-1.38201,,P6_3/mmc
JVASP-87074,SF6,FAILED_JVASP-87074.cif,5.947,7.374,mBJ,1.427,-1.71315,,Im-3m
JVASP-65804,Ba2CrCd,FAILED_JVASP-65804.cif,0.0,0.0,mBJ,0.0,0.24495,,Fm-3m
JVASP-65419,BaSc2Ni,FAILED_JVASP-65419.cif,0.0,0.0,mBJ,0.0,-0.07277,,P4/mmm
JVASP-66584,BaNbCl,FAILED_JVASP-66584.cif,0.0,0.0,mBJ,0.0,0.63192,,F-43m
JVASP-66151,Ba4VRu,FAILED_JVASP-66151.cif,0.0,0.0,mBJ,0.0,1.5506,,F-43m
JVASP-65571,Ba2MgZr,FAILED_JVASP-65571.cif,0.0,0.0,mBJ,0.0,0.49229,,Fm-3m
JVASP-61815,MgBeAl4O8,FAILED_JVASP-61815.cif,6.074,7.434,mBJ,1.36,-3.21411,,P6_3mc
JVASP-65755,Ba2MgV,FAILED_JVASP-65755.cif,0.0,0.0,mBJ,0.0,0.77691,,Fm-3m
JVASP-66307,BaHfTe,FAILED_JVASP-66307.cif,0.0,0.0,mBJ,0.0,0.69518,,F-43m
JVASP-66619,KBaSi,FAILED_JVASP-66619.cif,0.0,0.0,mBJ,0.0,0.26192,,F-43m
JVASP-69292,BaHf4Ga,FAILED_JVASP-69292.cif,0.0,0.0,mBJ,0.0,0.58777,,F-43m
JVASP-53562,Al3NO3,FAILED_JVASP-53562.cif,4.482,5.603,mBJ,1.121,-2.78974,,Pnma
JVASP-66387,BaYCl,FAILED_JVASP-66387.cif,0.0,0.0,mBJ,0.0,0.14654,,F-43m
JVASP-69220,Ba2LiCr,FAILED_JVASP-69220.cif,0.0,0.0,mBJ,0.0,0.44526,,Fm-3m
JVASP-66176,BaSrMn,FAILED_JVASP-66176.cif,0.0,0.0,mBJ,0.0,1.01006,,F-43m
JVASP-68936,Ba2CaMo,FAILED_JVASP-68936.cif,0.0,0.0,mBJ,0.0,0.81621,,Fm-3m
JVASP-28370,VI2,FAILED_JVASP-28370.cif,0.0,0.0,mBJ,0.0,-0.14123,,P-3m1
JVASP-66585,Ba4HfMo,FAILED_JVASP-66585.cif,0.0,0.0,mBJ,0.0,1.52163,,F-43m
JVASP-66076,Ba4MgW,FAILED_JVASP-66076.cif,0.0,0.0,mBJ,0.0,1.21501,,F-43m
JVASP-66266,Ba4TiRu,FAILED_JVASP-66266.cif,0.0,0.0,mBJ,0.0,1.3774,,F-43m
JVASP-85955,HgCSO3F3,FAILED_JVASP-85955.cif,3.361,4.647,mBJ,1.286,-1.20004,,P-1
JVASP-65718,BaP2Ru,FAILED_JVASP-65718.cif,0.0,0.0,mBJ,0.0,0.46188,,P4/mmm
JVASP-65500,BaSc2Be,FAILED_JVASP-65500.cif,0.0,0.0,mBJ,0.0,0.21345,,P4/mmm
JVASP-66431,KBaGe,FAILED_JVASP-66431.cif,0.0,0.0,mBJ,0.0,0.06085,,F-43m
JVASP-4930,NiAg2O2,FAILED_JVASP-4930.cif,0.0,0.0,mBJ,0.0,-0.53467,,R-3m
JVASP-63107,YbBiAu,FAILED_JVASP-63107.cif,0.0,0.0,mBJ,0.0,-0.77092,,P6_3mc
JVASP-22529,CaClF,FAILED_JVASP-22529.cif,5.652,7.19,HSE,1.538,-3.38756,,P4/nmm
JVASP-42568,Li2CuNiO4,FAILED_JVASP-42568.cif,0.0,0.0,mBJ,0.0,-1.36115,,I-4m2
JVASP-91679,BC2N,FAILED_JVASP-91679.cif,1.088,1.91,mBJ,0.822,0.16276,,Cm
JVASP-86757,TcBr3,FAILED_JVASP-86757.cif,0.0,0.0,mBJ,0.0,-0.38202,,Pmmn
JVASP-69054,Ba2ScIn,FAILED_JVASP-69054.cif,0.0,0.0,mBJ,0.0,0.01168,,Fm-3m
JVASP-69096,BaMn2Sn,FAILED_JVASP-69096.cif,0.0,0.0,mBJ,0.0,0.58515,,P4/mmm
JVASP-61624,ErAu4,FAILED_JVASP-61624.cif,0.0,0.0,mBJ,0.0,-0.64543,,I4/m
JVASP-28402,MoWSe4,FAILED_JVASP-28402.cif,1.159,1.287,mBJ,0.128,-0.56769,,P3m1
JVASP-48334,Mn2OF3,FAILED_JVASP-48334.cif,0.016,0.0,mBJ,-0.016,-2.21658,,P-3m1
JVASP-69221,BaHfZr4,FAILED_JVASP-69221.cif,0.0,0.0,mBJ,0.0,0.53845,,F-43m
JVASP-65539,BaCd2Te,FAILED_JVASP-65539.cif,0.0,0.0,mBJ,0.0,-0.4902,,P4/mmm
JVASP-91631,Ba3CaO4,FAILED_JVASP-91631.cif,2.077,3.523,mBJ,1.446,-2.73764,,Pm-3m
JVASP-66152,BaSnPb,FAILED_JVASP-66152.cif,0.0,0.0,mBJ,0.0,-0.06821,,F-43m
JVASP-43647,Li2FeF4,FAILED_JVASP-43647.cif,0.077,0.0,mBJ,-0.077,-2.58106,,Cmmm
JVASP-65606,BaCd2Te,FAILED_JVASP-65606.cif,0.0,0.0,mBJ,0.0,-0.49014,,P4/mmm
JVASP-15148,DySi2Pt2,FAILED_JVASP-15148.cif,0.0,0.0,mBJ,0.0,-0.96529,,I4/mmm
JVASP-5266,Sr2InI5,FAILED_JVASP-5266.cif,2.827,3.457,mBJ,0.63,-1.4544,,I4/mcm
JVASP-3123,SrAgP,FAILED_JVASP-3123.cif,0.184,0.748,mBJ,0.564,-0.84135,,P6_3/mmc
JVASP-87313,Ag2PHO4,FAILED_JVASP-87313.cif,1.436,2.596,mBJ,1.16,-1.28683,,P3_1
JVASP-62801,Co2B2O5,FAILED_JVASP-62801.cif,0.0,0.0,mBJ,0.0,-1.71936,,P-1
JVASP-68976,BaV2Bi,FAILED_JVASP-68976.cif,0.0,0.0,mBJ,0.0,0.44827,,Pmmm
JVASP-66227,BaLiBi,FAILED_JVASP-66227.cif,0.386,0.892,mBJ,0.506,-0.29135,,F-43m
JVASP-65687,Ba2SnS,FAILED_JVASP-65687.cif,0.0,0.0,mBJ,0.0,-0.9624,,Fm-3m
JVASP-69258,BaSr2Sb,FAILED_JVASP-69258.cif,0.0,0.0,mBJ,0.0,-0.53004,,P4/mmm
JVASP-18619,Mn2Au,FAILED_JVASP-18619.cif,0.0,0.0,mBJ,0.0,0.23035,,I4/mmm
JVASP-66624,BaNbTl,FAILED_JVASP-66624.cif,0.0,0.0,mBJ,0.0,1.365,,F-43m
JVASP-90882,CaFeAsF,FAILED_JVASP-90882.cif,0.0,0.0,mBJ,0.0,-1.94137,,P4/nmm
JVASP-66178,Ba4SiSe,FAILED_JVASP-66178.cif,0.0,0.0,mBJ,0.0,0.16131,,F-43m
JVASP-69134,BaHf2Br,FAILED_JVASP-69134.cif,0.0,0.0,mBJ,0.0,0.26361,,I4/mmm
JVASP-65645,BaSr2Te,FAILED_JVASP-65645.cif,0.0,0.0,mBJ,0.0,-0.78559,,P4mm
JVASP-66505,BaMgTe,FAILED_JVASP-66505.cif,1.044,1.091,mBJ,0.047,-0.666,,F-43m
JVASP-66389,BaInTe,FAILED_JVASP-66389.cif,0.0,1.578,mBJ,1.578,-0.57592,,F-43m
JVASP-62946,UFeB4,FAILED_JVASP-62946.cif,0.0,0.0,mBJ,0.0,-0.52957,,Pbam
JVASP-69293,BaCrCl2,FAILED_JVASP-69293.cif,0.0,0.0,mBJ,0.0,-0.99876,,P4mm
JVASP-12051,BiOF,FAILED_JVASP-12051.cif,2.983,4.473,mBJ,1.49,-1.96668,,R-3m
JVASP-66471,Ba4MoPt,FAILED_JVASP-66471.cif,0.0,0.0,mBJ,0.0,1.12276,,F-43m
JVASP-48235,Li2Mn3SbO8,FAILED_JVASP-48235.cif,0.0,0.0,mBJ,0.0,-1.76332,,P-1
JVASP-90606,Ca3Mg,FAILED_JVASP-90606.cif,0.0,0.0,mBJ,0.0,-0.03111,,P6_3/mmc
JVASP-14556,GaRh,FAILED_JVASP-14556.cif,0.0,0.0,mBJ,0.0,-0.62042,,Pm-3m
JVASP-66270,Ba4ScTa,FAILED_JVASP-66270.cif,0.0,0.0,mBJ,0.0,1.16999,,F-43m
JVASP-14705,YbB6,FAILED_JVASP-14705.cif,0.013,0.15,mBJ,0.137,-0.49759,,Pm-3m
JVASP-66080,Ba4TiOs,FAILED_JVASP-66080.cif,0.0,0.0,mBJ,0.0,1.50696,,F-43m
JVASP-66155,Ba4TaPd,FAILED_JVASP-66155.cif,0.0,0.0,mBJ,0.0,1.13955,,F-43m
JVASP-66685,BaYSn,FAILED_JVASP-66685.cif,0.0,0.132,mBJ,0.132,0.29857,,F-43m
JVASP-85497,UH2O4,FAILED_JVASP-85497.cif,1.785,1.765,mBJ,-0.02,-2.20264,,C2
JVASP-20089,SmPt2,FAILED_JVASP-20089.cif,0.0,0.0,mBJ,0.0,-1.10507,,Fd-3m
JVASP-63450,KAuSe2,FAILED_JVASP-63450.cif,0.858,1.505,mBJ,0.647,-0.62449,,P4/mbm
JVASP-66179,BaLiPb,FAILED_JVASP-66179.cif,0.0,0.0,mBJ,0.0,0.10249,,F-43m
JVASP-91722,Ba2TeO,FAILED_JVASP-91722.cif,1.749,2.482,mBJ,0.733,-2.33548,,P4/nmm
JVASP-66390,BaHgCl,FAILED_JVASP-66390.cif,0.0,3.928,mBJ,3.928,-1.05407,,F-43m
JVASP-66116,Ba4YTc,FAILED_JVASP-66116.cif,0.0,0.0,mBJ,0.0,1.16445,,F-43m
JVASP-86935,LiLaTiO4,FAILED_JVASP-86935.cif,2.312,2.624,mBJ,0.312,-3.29243,,P4/nmm
JVASP-66433,BaCaV,FAILED_JVASP-66433.cif,0.0,0.0,mBJ,0.0,1.2544,,F-43m
JVASP-63295,ThAs12Os4,FAILED_JVASP-63295.cif,0.415,0.527,mBJ,0.112,-0.34813,,Im-3
JVASP-65421,BaTiPd2,FAILED_JVASP-65421.cif,0.0,0.0,mBJ,0.0,-0.42601,,P4/mmm
JVASP-5362,As4S3,FAILED_JVASP-5362.cif,1.808,2.6,HSE,0.792,-0.10895,,Pnma
JVASP-69340,BaSr2Sc,FAILED_JVASP-69340.cif,0.0,0.0,mBJ,0.0,0.2029,,P4/mmm
JVASP-65759,BaTi4Br,FAILED_JVASP-65759.cif,0.0,0.0,mBJ,0.0,0.60615,,F-43m
JVASP-15003,Nb3Pt,FAILED_JVASP-15003.cif,0.0,0.0,mBJ,0.0,-0.38912,,Pm-3n
JVASP-66657,Ba4BiP,FAILED_JVASP-66657.cif,0.0,0.0,mBJ,0.0,0.07788,,F-43m
JVASP-63865,AuCl2,FAILED_JVASP-63865.cif,0.742,0.721,mBJ,-0.021,-0.24141,,P-1
JVASP-62807,TbCo12B6,FAILED_JVASP-62807.cif,0.0,0.0,mBJ,0.0,-0.34577,,R-3m
JVASP-66506,BaCdSn,FAILED_JVASP-66506.cif,0.0,0.0,mBJ,0.0,-0.0141,,F-43m
JVASP-66272,BaSrPb,FAILED_JVASP-66272.cif,0.324,0.505,mBJ,0.181,-0.11082,,F-43m
JVASP-22594,CaCrF6,FAILED_JVASP-22594.cif,0.0,0.0,mBJ,0.0,-3.05998,,R-3
JVASP-63455,GaAsO4,FAILED_JVASP-63455.cif,3.198,5.197,mBJ,1.999,-1.52688,,P3_121
JVASP-15039,LiPd,FAILED_JVASP-15039.cif,0.0,0.0,mBJ,0.0,-0.4637,,Pm-3m
JVASP-65608,BaCdP2,FAILED_JVASP-65608.cif,0.0,0.0,mBJ,0.0,-0.19144,,P4/mmm
JVASP-69173,BaSrTa4,FAILED_JVASP-69173.cif,0.0,0.0,mBJ,0.0,0.80675,,F-43m
JVASP-65720,BaCrSi2,FAILED_JVASP-65720.cif,0.0,0.0,mBJ,0.0,0.5971,,P4/mmm
JVASP-66472,BaSrSb,FAILED_JVASP-66472.cif,0.0,1.408,mBJ,1.408,-0.31919,,F-43m
JVASP-66230,BaMgZn,FAILED_JVASP-66230.cif,0.0,0.0,mBJ,0.0,0.27656,,F-43m
JVASP-69100,K2BaGa,FAILED_JVASP-69100.cif,0.0,0.0,mBJ,0.0,0.12749,,P4/mmm
JVASP-66626,BaSrHg,FAILED_JVASP-66626.cif,0.0,0.0,mBJ,0.0,0.21421,,F-43m
JVASP-65646,BaTlSn2,FAILED_JVASP-65646.cif,0.0,0.0,mBJ,0.0,-0.3286,,P4/mmm
JVASP-69057,K2BaBe,FAILED_JVASP-69057.cif,0.0,0.0,mBJ,0.0,0.57772,,P4/mmm
JVASP-66686,KBaBi,FAILED_JVASP-66686.cif,1.024,1.743,mBJ,0.719,-0.51805,,F-43m
JVASP-69259,BaNa2V,FAILED_JVASP-69259.cif,0.0,0.0,mBJ,0.0,0.99616,,P4/mmm
JVASP-66180,BaCdHg,FAILED_JVASP-66180.cif,0.0,0.0,mBJ,0.0,-0.05934,,F-43m
JVASP-69135,BaSi2Pd,FAILED_JVASP-69135.cif,0.0,0.0,mBJ,0.0,0.18014,,P4/mmm
JVASP-68938,BaBeCo2,FAILED_JVASP-68938.cif,0.0,0.0,mBJ,0.0,1.04406,,P4/mmm
JVASP-66391,BaTlCl,FAILED_JVASP-66391.cif,0.0,0.0,mBJ,0.0,-0.75887,,F-43m
JVASP-65575,BaRh2Br,FAILED_JVASP-65575.cif,0.0,0.0,mBJ,0.0,0.1334,,I4/mmm
JVASP-90143,GeO2,FAILED_JVASP-90143.cif,3.245,5.332,mBJ,2.087,-1.67662,,P3_121
JVASP-91816,Ba3SrO4,FAILED_JVASP-91816.cif,2.149,3.566,mBJ,1.417,-2.77512,,Pm-3m
JVASP-3888,K2TiCl6,FAILED_JVASP-3888.cif,1.953,2.486,mBJ,0.533,-1.88789,,Fm-3m
JVASP-62388,MnNiAs,FAILED_JVASP-62388.cif,0.0,0.0,mBJ,0.0,-0.17005,,F-43m
JVASP-85687,Na2SnH6O6,FAILED_JVASP-85687.cif,3.467,5.521,mBJ,2.054,-1.37216,,R-3
JVASP-63210,BN,FAILED_JVASP-63210.cif,3.706,5.24,mBJ,1.534,-1.19665,,Cc
JVASP-63111,VFeAs,FAILED_JVASP-63111.cif,0.0,0.0,mBJ,0.0,-0.28203,,P-62m
JVASP-14632,TmC2,FAILED_JVASP-14632.cif,0.0,0.225,mBJ,0.225,-0.35002,,I4/mmm
JVASP-66435,Ba4LiOs,FAILED_JVASP-66435.cif,0.0,0.0,mBJ,0.0,1.10999,,F-43m
JVASP-69175,Ba2InHg,FAILED_JVASP-69175.cif,0.0,0.0,mBJ,0.0,-0.48067,,Fm-3m