material_id,formula,cif_path,pbe_bandgap,hse_bandgap,gap_type,correction,formation_energy,total_energy,spacegroup
JVASP-49753,HoHO2,FAILED_JVASP-49753.cif,4.832,7.099,mBJ,2.267,-2.8022,,Pnma
JVASP-104962,Er2CuSi3,FAILED_JVASP-104962.cif,0.0,0.0,mBJ,0.0,-0.65879,,Imm2
JVASP-19897,PuP,FAILED_JVASP-19897.cif,0.0,0.0,mBJ,0.0,-1.42235,,Fm-3m
JVASP-107336,Ho2Ga3Ni,FAILED_JVASP-107336.cif,0.0,0.0,mBJ,0.0,-0.6725,,Cm
JVASP-106470,LiAgF2,FAILED_JVASP-106470.cif,1.889,2.86,mBJ,0.971,-2.12484,,R-3m
JVASP-14731,HoSe,FAILED_JVASP-14731.cif,0.0,1.379,mBJ,1.379,-1.78523,,Fm-3m
JVASP-104583,KCd3,FAILED_JVASP-104583.cif,0.0,0.0,mBJ,0.0,-0.07547,,Fm-3m
JVASP-102668,TeAs2,FAILED_JVASP-102668.cif,0.0,0.0,mBJ,0.0,0.19689,,I4_1/amd
JVASP-102431,CaAl2Sn2,FAILED_JVASP-102431.cif,0.0,0.0,mBJ,0.0,-0.31408,,P-3m1
JVASP-52279,Bi2OF4,FAILED_JVASP-52279.cif,4.185,5.574,mBJ,1.389,-2.3256,,C2/c
JVASP-1546,RbErO2,FAILED_JVASP-1546.cif,3.706,5.366,mBJ,1.66,-3.00308,,R-3m
JVASP-106398,ThInRh2,FAILED_JVASP-106398.cif,0.0,0.0,mBJ,0.0,-0.71963,,Fm-3m
JVASP-102329,Na2TlHg,FAILED_JVASP-102329.cif,0.0,0.0,mBJ,0.0,-0.16667,,F-43m
JVASP-15417,ThSi2Pt2,FAILED_JVASP-15417.cif,0.0,0.0,mBJ,0.0,-0.96951,,I4/mmm
JVASP-15370,UAsS,FAILED_JVASP-15370.cif,0.0,0.0,mBJ,0.0,-1.21463,,P4/nmm
JVASP-106735,SrCaPb6,FAILED_JVASP-106735.cif,0.0,0.0,mBJ,0.0,-0.40122,,P4/mmm
JVASP-107390,Na3VO4,FAILED_JVASP-107390.cif,3.81,4.466,mBJ,0.656,-2.32044,,I-42m
JVASP-16072,USe2,FAILED_JVASP-16072.cif,0.0,0.0,mBJ,0.0,-1.18844,,P-62m
JVASP-15054,SrAl4,FAILED_JVASP-15054.cif,0.0,0.0,mBJ,0.0,-0.32509,,I4/mmm
JVASP-28390,K2Mg2Si2O7,FAILED_JVASP-28390.cif,5.477,7.241,mBJ,1.764,-2.80058,,P-31m
JVASP-48583,VO2F,FAILED_JVASP-48583.cif,2.526,3.001,mBJ,0.475,-2.47141,,P1
JVASP-15033,HgTe,FAILED_JVASP-15033.cif,0.0,0.0,mBJ,0.0,0.05835,,F-43m
JVASP-105213,MgTi3,FAILED_JVASP-105213.cif,0.0,0.0,mBJ,0.0,0.14435,,Pm-3m
JVASP-18485,TiCl2,FAILED_JVASP-18485.cif,0.0,0.0,mBJ,0.0,-1.50184,,P-3m1
JVASP-104849,HoZrRu2,FAILED_JVASP-104849.cif,0.0,0.0,mBJ,0.0,-0.57767,,Fm-3m
JVASP-107008,Tb3GaC,FAILED_JVASP-107008.cif,0.0,0.0,mBJ,0.0,-0.47134,,Pm-3m
JVASP-3996,WBr6,FAILED_JVASP-3996.cif,0.34,1.14,mBJ,0.8,-0.4982,,R-3
JVASP-3249,Nd2SeO2,FAILED_JVASP-3249.cif,2.314,3.627,mBJ,1.313,-3.19476,,P-3m1
JVASP-107119,K2AgAsF6,FAILED_JVASP-107119.cif,2.263,3.751,mBJ,1.488,-2.27749,,Fm-3m
JVASP-106675,TaInSe2,FAILED_JVASP-106675.cif,0.0,0.0,mBJ,0.0,-0.67201,,P-6m2
JVASP-106899,K2NaPrF6,FAILED_JVASP-106899.cif,6.064,9.25,mBJ,3.186,-3.3907,,Fm-3m
JVASP-105360,TmScB2O6,FAILED_JVASP-105360.cif,4.599,5.677,mBJ,1.078,-3.30518,,R-3
JVASP-102432,K2ZnS2,FAILED_JVASP-102432.cif,2.675,4.491,mBJ,1.816,-1.21324,,Ibam
JVASP-14732,Ti,FAILED_JVASP-14732.cif,0.0,0.0,mBJ,0.0,0.00939,,P6_3/mmc
JVASP-101876,SnH6C4O4,FAILED_JVASP-101876.cif,3.382,4.793,mBJ,1.411,-0.57075,,P1
JVASP-103741,NiH2O2,FAILED_JVASP-103741.cif,0.817,0.971,mBJ,0.154,-0.8642,,P-3m1
JVASP-22520,BeF2,FAILED_JVASP-22520.cif,8.702,12.276,mBJ,3.574,-3.44006,,P3_121
JVASP-15094,DySi2Rh2,FAILED_JVASP-15094.cif,0.0,0.0,mBJ,0.0,-1.05966,,I4/mmm
JVASP-2205,Al2HgSe4,FAILED_JVASP-2205.cif,1.462,2.342,mBJ,0.88,-0.69738,,I-4
JVASP-13062,SnBr2,FAILED_JVASP-13062.cif,2.551,3.31,mBJ,0.759,-0.82529,,Pnma
JVASP-18486,VCl3,FAILED_JVASP-18486.cif,0.0,0.0,mBJ,0.0,-1.29378,,R-3
JVASP-105124,BiPd2Au,FAILED_JVASP-105124.cif,0.0,0.0,mBJ,0.0,-0.20381,,Fm-3m
JVASP-104584,K3Zn,FAILED_JVASP-104584.cif,0.0,0.0,mBJ,0.0,0.06146,,Pm-3m
JVASP-102723,Li2SnPt,FAILED_JVASP-102723.cif,0.0,0.0,mBJ,0.0,-0.70763,,F-43m
JVASP-12912,Ga2TeSe2,FAILED_JVASP-12912.cif,1.633,2.592,mBJ,0.959,-0.49004,,I4_1md
JVASP-107232,Y2RuPt,FAILED_JVASP-107232.cif,0.0,0.0,mBJ,0.0,-0.86549,,Fm-3m
JVASP-106616,YbMg,FAILED_JVASP-106616.cif,0.0,0.0,mBJ,0.0,-0.09781,,Pm-3m
JVASP-107062,DySi2Pt2,FAILED_JVASP-107062.cif,0.0,0.0,mBJ,0.0,-0.94425,,I4/mmm
JVASP-49755,HoBiO3,FAILED_JVASP-49755.cif,2.423,3.968,mBJ,1.545,-2.56636,,R-3
JVASP-102433,K3VSe4,FAILED_JVASP-102433.cif,1.266,1.548,mBJ,0.282,-1.0042,,I-42m
JVASP-106736,Sr2NbGaO6,FAILED_JVASP-106736.cif,3.171,3.852,mBJ,0.681,-2.90209,,Fm-3m
JVASP-18637,YBiPd2,FAILED_JVASP-18637.cif,0.0,0.0,mBJ,0.0,-0.76348,,Fm-3m
JVASP-104795,Tb2SeO2,FAILED_JVASP-104795.cif,2.362,3.463,mBJ,1.101,-3.28027,,I4/mmm
JVASP-102572,Ti3Si,FAILED_JVASP-102572.cif,0.0,0.0,mBJ,0.0,-0.43478,,P6_3/mmc
JVASP-15141,LuBPd3,FAILED_JVASP-15141.cif,0.0,0.0,mBJ,0.0,-0.63321,,Pm-3m
JVASP-53554,KFe2As2,FAILED_JVASP-53554.cif,0.0,0.0,mBJ,0.0,-0.34231,,I4/mmm
JVASP-107286,SrIn3Au,FAILED_JVASP-107286.cif,0.0,0.0,mBJ,0.0,-0.48551,,I4mm
JVASP-51116,IrOsW,FAILED_JVASP-51116.cif,0.0,0.0,mBJ,0.0,0.38538,,F-43m
JVASP-13063,Sm2SCl4,FAILED_JVASP-13063.cif,3.508,4.395,mBJ,0.887,-2.36449,,C2/c
JVASP-15767,TmPPt,FAILED_JVASP-15767.cif,0.0,0.0,mBJ,0.0,-1.33874,,P-6m2
JVASP-102524,LiSi3,FAILED_JVASP-102524.cif,0.0,0.0,mBJ,0.0,0.24655,,I4/mmm
JVASP-14383,InPd3,FAILED_JVASP-14383.cif,0.0,0.0,mBJ,0.0,-0.41255,,Pm-3m
JVASP-107450,HoErIn2,FAILED_JVASP-107450.cif,0.0,0.0,mBJ,0.0,-0.46014,,Fm-3m
JVASP-1549,RbTmO2,FAILED_JVASP-1549.cif,3.722,5.632,mBJ,1.91,-3.02256,,R-3m
JVASP-43159,Li2Fe3CoO8,FAILED_JVASP-43159.cif,0.0,0.0,mBJ,0.0,-1.64176,,R-3m
JVASP-104738,Ho2Ga3Cu,FAILED_JVASP-104738.cif,0.0,0.0,mBJ,0.0,-0.62478,,P3m1
JVASP-104636,ErPRu2C,FAILED_JVASP-104636.cif,0.0,0.0,mBJ,0.0,-0.68366,,Cmcm
JVASP-107179,K2HgAu,FAILED_JVASP-107179.cif,0.0,0.0,mBJ,0.0,-0.30877,,Fm-3m
JVASP-104850,HoLuIn2,FAILED_JVASP-104850.cif,0.0,0.0,mBJ,0.0,-0.43253,,Fm-3m
JVASP-107680,Nb3Os,FAILED_JVASP-107680.cif,0.0,0.0,mBJ,0.0,-0.26023,,Fm-3m
JVASP-50058,Al2O3,FAILED_JVASP-50058.cif,6.011,7.302,mBJ,1.291,-3.22476,,P-31c
JVASP-104689,TaCu3Se3S,FAILED_JVASP-104689.cif,1.728,1.787,mBJ,0.059,-0.54914,,R3m
JVASP-2097,GaF3,FAILED_JVASP-2097.cif,5.03,7.969,mBJ,2.939,-2.71457,,R-3c
JVASP-106902,K2LiPrI6,FAILED_JVASP-106902.cif,2.894,3.502,mBJ,0.608,-1.41884,,Fm-3m
JVASP-22530,NaHF2,FAILED_JVASP-22530.cif,7.136,12.067,mBJ,4.931,-2.32327,,R-3m
JVASP-16073,SrSbPt,FAILED_JVASP-16073.cif,0.0,0.0,mBJ,0.0,-0.99197,,P-6m2
JVASP-107131,Rb2TlAuI6,FAILED_JVASP-107131.cif,0.0,0.0,mBJ,0.0,-0.74421,,Fm-3m
JVASP-103695,MnZnTe2,FAILED_JVASP-103695.cif,0.0,0.724,mBJ,0.724,-0.20773,,R3m
JVASP-19830,Te2Pd,FAILED_JVASP-19830.cif,0.0,0.0,mBJ,0.0,-0.31222,,P-3m1
JVASP-107010,SiPAu,FAILED_JVASP-107010.cif,0.93,1.203,mBJ,0.273,-0.20678,,R3m
JVASP-107233,Y2CuPt,FAILED_JVASP-107233.cif,0.0,0.0,mBJ,0.0,-0.85183,,Fm-3m
JVASP-13993,HoSi2,FAILED_JVASP-13993.cif,0.0,0.0,mBJ,0.0,-0.44565,,P6/mmm
JVASP-106617,YbMg3,FAILED_JVASP-106617.cif,0.0,0.0,mBJ,0.0,-0.07729,,Fm-3m
JVASP-48191,Li2P2WO8,FAILED_JVASP-48191.cif,0.0,0.367,mBJ,0.367,-2.26088,,Pmc2_1
JVASP-102525,LiThHg2,FAILED_JVASP-102525.cif,0.0,0.0,mBJ,0.0,-0.24631,,Fm-3m
JVASP-102466,Cd3Pd,FAILED_JVASP-102466.cif,0.0,0.0,mBJ,0.0,-0.21886,,Pm-3m
JVASP-15805,BaZn2P2,FAILED_JVASP-15805.cif,0.0,0.408,mBJ,0.408,-0.71449,,I4/mmm
JVASP-15418,TiCo2Ge,FAILED_JVASP-15418.cif,0.0,0.0,mBJ,0.0,-0.48138,,Fm-3m
JVASP-1207,CdAs2,FAILED_JVASP-1207.cif,0.109,0.855,mBJ,0.746,-0.0578,,I4_122
JVASP-15034,TiGa3,FAILED_JVASP-15034.cif,0.0,0.0,mBJ,0.0,-0.33534,,I4/mmm
JVASP-2814,Na2AgAs,FAILED_JVASP-2814.cif,0.803,1.539,mBJ,0.736,-0.42314,,Cmcm
JVASP-105125,Ca2TlHg,FAILED_JVASP-105125.cif,0.0,0.0,mBJ,0.0,-0.52926,,Fm-3m
JVASP-2044,Ca2AsI,FAILED_JVASP-2044.cif,1.499,2.004,mBJ,0.505,-1.52948,,R-3m
JVASP-107627,K2RbNdF6,FAILED_JVASP-107627.cif,5.137,9.4,mBJ,4.263,-3.31004,,Fm-3m
JVASP-22571,SiO2,FAILED_JVASP-22571.cif,5.832,8.43,mBJ,2.598,-2.8827,,Pna2_1
JVASP-107451,Li2PrGa,FAILED_JVASP-107451.cif,0.0,0.0,mBJ,0.0,-0.32729,,Fm-3m
JVASP-16911,CoO2,FAILED_JVASP-16911.cif,0.0,0.0,mBJ,0.0,0.16414,,P6_3/mmc
JVASP-107234,Xe,FAILED_JVASP-107234.cif,5.889,7.779,mBJ,1.89,0.00804,,Fmmm
JVASP-102574,YbHoCd2,FAILED_JVASP-102574.cif,0.0,0.0,mBJ,0.0,-0.42209,,Fm-3m
JVASP-103647,PrMgIn,FAILED_JVASP-103647.cif,0.0,0.0,mBJ,0.0,-0.45748,,P-62m
JVASP-29030,Te3MoWSe,FAILED_JVASP-29030.cif,0.39,0.426,mBJ,0.036,-0.22173,,P3m1
JVASP-104800,K3InI6,FAILED_JVASP-104800.cif,1.187,2.15,mBJ,0.963,-1.03048,,Fm-3m
JVASP-12981,Tl2AgI3,FAILED_JVASP-12981.cif,2.316,3.29,mBJ,0.974,-0.53267,,R-3
JVASP-15768,UTeP,FAILED_JVASP-15768.cif,0.0,0.0,mBJ,0.0,-0.78232,,I4/mmm
JVASP-2697,NaNbSe2,FAILED_JVASP-2697.cif,0.626,1.043,mBJ,0.417,-1.0584,,P6_3/mmc
JVASP-104690,TaFePb2O6,FAILED_JVASP-104690.cif,0.0,1.35,mBJ,1.35,-1.91828,,Fm-3m
JVASP-107066,ErAgTe2,FAILED_JVASP-107066.cif,1.098,1.672,mBJ,0.574,-0.88042,,P3m1
JVASP-104851,Li2TlIn,FAILED_JVASP-104851.cif,0.0,0.0,mBJ,0.0,-0.30591,,Fm-3m
JVASP-107628,K2RbMoI6,FAILED_JVASP-107628.cif,1.246,2.076,mBJ,0.83,-0.89149,,Fm-3m
JVASP-1603,K2Se,FAILED_JVASP-1603.cif,2.171,4.313,mBJ,2.142,-1.20708,,Fm-3m
JVASP-101590,MgS2,FAILED_JVASP-101590.cif,0.909,2.073,mBJ,1.164,-1.00225,,P6_3/mmc
JVASP-107133,Rb2PrAgF6,FAILED_JVASP-107133.cif,2.42,4.653,mBJ,2.233,-3.00666,,Fm-3m
JVASP-106847,AlSiMo,FAILED_JVASP-106847.cif,0.0,0.0,mBJ,0.0,-0.344,,P3_212
JVASP-102670,TbSi2IrRh,FAILED_JVASP-102670.cif,0.0,0.0,mBJ,0.0,-1.06111,,I-4m2
JVASP-52905,RbH2N,FAILED_JVASP-52905.cif,2.208,4.302,mBJ,2.094,-0.38291,,P2_1/m
JVASP-104587,LiGe2Ir,FAILED_JVASP-104587.cif,0.0,0.0,mBJ,0.0,-0.32952,,Fm-3m
JVASP-15519,PrCo2Si2,FAILED_JVASP-15519.cif,0.0,0.0,mBJ,0.0,-0.70896,,I4/mmm
JVASP-2481,Al2CdS4,FAILED_JVASP-2481.cif,2.864,4.171,mBJ,1.307,-1.10629,,I-4
JVASP-18638,YbBiPd,FAILED_JVASP-18638.cif,0.0,0.0,mBJ,0.0,-0.8116,,F-43m
JVASP-104965,CuPd,FAILED_JVASP-104965.cif,0.0,0.0,mBJ,0.0,-0.10256,,R-3m
JVASP-50492,Sr2CaI6,FAILED_JVASP-50492.cif,3.651,4.653,mBJ,1.002,-1.70911,,C2/c
JVASP-18805,LiUN2,FAILED_JVASP-18805.cif,0.0,0.0,mBJ,0.0,-1.38024,,I4_1/amd
JVASP-102724,Li2CdIn,FAILED_JVASP-102724.cif,0.0,0.0,mBJ,0.0,-0.3467,,F-43m
JVASP-13846,YbCo3B2,FAILED_JVASP-13846.cif,0.0,0.0,mBJ,0.0,-0.45912,,P6/mmm
JVASP-106559,MgHg5,FAILED_JVASP-106559.cif,0.0,0.0,mBJ,0.0,0.14231,,P-62m
JVASP-105282,LiB,FAILED_JVASP-105282.cif,0.0,0.303,mBJ,0.303,-0.21924,,Imma
JVASP-102575,YbMg3,FAILED_JVASP-102575.cif,0.0,0.0,mBJ,0.0,-0.07943,,I4/mmm
JVASP-106681,ZrNbB4,FAILED_JVASP-106681.cif,0.0,0.0,mBJ,0.0,-0.84442,,P6/mmm
JVASP-12982,P3BrCl14,FAILED_JVASP-12982.cif,1.713,2.254,mBJ,0.541,-0.54059,,I4/m
JVASP-18932,ThAl2,FAILED_JVASP-18932.cif,0.0,0.0,mBJ,0.0,-0.4864,,P6/mmm
JVASP-104917,Ti3Al5,FAILED_JVASP-104917.cif,0.0,0.0,mBJ,0.0,-0.42193,,Pmmm
JVASP-2580,RbHgF3,FAILED_JVASP-2580.cif,0.546,2.977,mBJ,2.431,-2.02117,,Pm-3m
JVASP-102837,MnH2O2,FAILED_JVASP-102837.cif,0.753,2.071,mBJ,1.318,-0.91393,,P3m1
JVASP-107236,Yb2AgAu,FAILED_JVASP-107236.cif,0.0,0.0,mBJ,0.0,-0.80503,,Fm-3m
JVASP-50204,LiAgO2,FAILED_JVASP-50204.cif,0.0,0.303,mBJ,0.303,-0.74363,,P6_3/mmc
JVASP-16074,BaSbPt,FAILED_JVASP-16074.cif,0.0,0.0,mBJ,0.0,-0.98531,,P-6m2
JVASP-4627,TlTe3Pt2,FAILED_JVASP-4627.cif,0.081,0.134,mBJ,0.053,-0.40416,,P-3m1
JVASP-103814,H3C2SNO,FAILED_JVASP-103814.cif,2.317,3.558,mBJ,1.241,0.00693,,P1
JVASP-106962,LiSb3,FAILED_JVASP-106962.cif,0.0,0.0,mBJ,0.0,-0.05567,,Pm-3m
JVASP-15769,TmP,FAILED_JVASP-15769.cif,0.0,0.0,mBJ,0.0,-1.70433,,Fm-3m
JVASP-107134,Rb2InAuF6,FAILED_JVASP-107134.cif,0.289,2.142,mBJ,1.853,-2.3151,,Fm-3m
JVASP-105362,TlIn2GaSe4,FAILED_JVASP-105362.cif,0.483,0.812,mBJ,0.329,-0.53761,,I222
JVASP-104552,Al2CuPd,FAILED_JVASP-104552.cif,0.0,0.0,mBJ,0.0,-0.52878,,Fm-3m
JVASP-107293,Sc2CO,FAILED_JVASP-107293.cif,0.0,0.437,mBJ,0.437,-2.12125,,R-3m
JVASP-105438,Na2Zn3GeAs4,FAILED_JVASP-105438.cif,0.0,0.013,mBJ,0.013,-0.31282,,Cm
JVASP-12983,SrBi2O4,FAILED_JVASP-12983.cif,2.48,3.458,mBJ,0.978,-1.87133,,C2/m
JVASP-106738,Sr2HfTiO6,FAILED_JVASP-106738.cif,2.651,3.385,mBJ,0.734,-3.54669,,C2/m
JVASP-1432,NaTlO2,FAILED_JVASP-1432.cif,0.715,2.068,mBJ,1.353,-1.22213,,R-3m
JVASP-18758,ZrNiSn,FAILED_JVASP-18758.cif,0.021,0.022,mBJ,0.001,0.04869,,F-43m
JVASP-51200,ZrCrFe,FAILED_JVASP-51200.cif,0.0,0.0,mBJ,0.0,0.62506,,F-43m
JVASP-2952,Ba2HfS4,FAILED_JVASP-2952.cif,0.912,1.428,mBJ,0.516,-2.10402,,I4/mmm
JVASP-2586,Th2TeN2,FAILED_JVASP-2586.cif,1.673,2.079,mBJ,0.406,-1.97825,,I4/mmm
JVASP-15035,PRh2,FAILED_JVASP-15035.cif,0.0,0.0,mBJ,0.0,-0.67956,,Fm-3m
JVASP-103746,AlFeF5,FAILED_JVASP-103746.cif,0.363,0.988,mBJ,0.625,-2.99457,,Immm
JVASP-102624,TbCu4Pd,FAILED_JVASP-102624.cif,0.0,0.0,mBJ,0.0,-0.39036,,F-43m
JVASP-19831,MnSb,FAILED_JVASP-19831.cif,0.0,0.0,mBJ,0.0,0.0527,,P6_3/mmc
JVASP-107342,ErAlGa,FAILED_JVASP-107342.cif,0.0,0.0,mBJ,0.0,-0.57957,,P-6m2
JVASP-13159,LiClO2,FAILED_JVASP-13159.cif,2.605,2.766,mBJ,0.161,-0.82466,,P4_2/ncm
JVASP-15246,MnAlCo2,FAILED_JVASP-15246.cif,0.0,0.0,mBJ,0.0,-0.33714,,Fm-3m
JVASP-32150,H4C,FAILED_JVASP-32150.cif,7.891,11.981,mBJ,4.09,-0.21104,,I-43m
JVASP-106473,KLiSnO2,FAILED_JVASP-106473.cif,1.948,2.424,mBJ,0.476,-1.7396,,C2/m
JVASP-106560,MgMnIr2,FAILED_JVASP-106560.cif,0.0,0.0,mBJ,0.0,-0.28101,,Fm-3m
JVASP-14734,ErFe2,FAILED_JVASP-14734.cif,0.0,0.0,mBJ,0.0,-0.17667,,Fd-3m
JVASP-18639,ThBi,FAILED_JVASP-18639.cif,0.0,0.0,mBJ,0.0,-0.56687,,Pm-3m
JVASP-4140,GaCl3,FAILED_JVASP-4140.cif,3.92,6.033,mBJ,2.113,-1.07468,,C2/m
JVASP-103697,MnAlCuPd,FAILED_JVASP-103697.cif,0.0,0.0,mBJ,0.0,-0.30115,,F-43m
JVASP-19839,PuO,FAILED_JVASP-19839.cif,0.0,0.0,mBJ,0.0,-2.84445,,Fm-3m
JVASP-104588,LiHfAu2,FAILED_JVASP-104588.cif,0.0,0.0,mBJ,0.0,-0.59687,,Fm-3m
JVASP-2484,NaSbF6,FAILED_JVASP-2484.cif,4.918,6.878,mBJ,1.96,-2.56764,,Fm-3m
JVASP-19915,U3Si,FAILED_JVASP-19915.cif,0.0,0.0,mBJ,0.0,-0.22236,,I4/mcm
JVASP-107343,DySbTe3,FAILED_JVASP-107343.cif,0.874,1.02,mBJ,0.146,-0.77218,,R3m
JVASP-15373,TbScGe,FAILED_JVASP-15373.cif,0.0,0.0,mBJ,0.0,-0.75521,,I4/mmm
JVASP-107508,TlBiTeSe,FAILED_JVASP-107508.cif,0.0,0.0,mBJ,0.0,-0.24108,,P4/mmm
JVASP-105518,ErGa2Cu3,FAILED_JVASP-105518.cif,0.0,0.0,mBJ,0.0,-0.36697,,Cmmm
JVASP-105083,RbInF3,FAILED_JVASP-105083.cif,2.32,3.145,mBJ,0.825,-2.62426,,Fm-3m
JVASP-102671,TbCuNi4,FAILED_JVASP-102671.cif,0.0,0.0,mBJ,0.0,-0.36247,,P-6m2
JVASP-3030,K2PAu,FAILED_JVASP-3030.cif,0.956,1.749,mBJ,0.793,-0.58385,,Cmcm
JVASP-13323,Nd5CuSe8,FAILED_JVASP-13323.cif,1.006,1.006,mBJ,0.0,-1.72195,,I-4
JVASP-50206,Ho2TeO6,FAILED_JVASP-50206.cif,2.666,3.838,mBJ,1.172,-2.67904,,P4_2/mnm
JVASP-15069,YbAu,FAILED_JVASP-15069.cif,0.0,0.0,mBJ,0.0,-1.07953,,Pm-3m
JVASP-54765,MnHO2,FAILED_JVASP-54765.cif,0.0,0.0,mBJ,0.0,-1.47628,,Pmn2_1
JVASP-53450,In4SnS8,FAILED_JVASP-53450.cif,0.303,1.387,mBJ,1.084,-0.55882,,R3m
JVASP-106741,Sn2SeS,FAILED_JVASP-106741.cif,0.715,0.853,mBJ,0.138,-0.52603,,Pmc2_1
JVASP-102527,LiSmIn2,FAILED_JVASP-102527.cif,0.0,0.0,mBJ,0.0,-0.44266,,Fm-3m
JVASP-15806,CaZn2Sb2,FAILED_JVASP-15806.cif,0.0,0.409,mBJ,0.409,-0.48603,,P-3m1
JVASP-18933,NbCo2,FAILED_JVASP-18933.cif,0.0,0.0,mBJ,0.0,-0.16891,,Fd-3m
JVASP-104641,KCaI3,FAILED_JVASP-104641.cif,3.559,4.288,mBJ,0.729,-1.69042,,Cmcm
JVASP-54718,MoH2O4,FAILED_JVASP-54718.cif,3.043,3.609,mBJ,0.566,-1.61065,,P-1
JVASP-107394,AcMnO3,FAILED_JVASP-107394.cif,0.0,0.0,mBJ,0.0,-2.87296,,Pm-3m
JVASP-106963,LiZnPt2,FAILED_JVASP-106963.cif,0.0,0.0,mBJ,0.0,-0.63952,,Fm-3m
JVASP-18528,Tl2WCl6,FAILED_JVASP-18528.cif,0.0,0.0,mBJ,0.0,-0.991,,Fm-3m
JVASP-44060,Li2Fe3WO8,FAILED_JVASP-44060.cif,0.0,0.0,mBJ,0.0,-1.81937,,R-3m
JVASP-1654,RbPrS2,FAILED_JVASP-1654.cif,2.205,3.332,mBJ,1.127,-1.98993,,R-3m
JVASP-16032,AgO,FAILED_JVASP-16032.cif,0.0,0.0,mBJ,0.0,0.11071,,F-43m
JVASP-102579,Y2ZnGa,FAILED_JVASP-102579.cif,0.0,0.0,mBJ,0.0,-0.56323,,Fm-3m
JVASP-106620,Y2ZnRh,FAILED_JVASP-106620.cif,0.0,0.0,mBJ,0.0,-0.67078,,Fm-3m
JVASP-18961,Dy2S3,FAILED_JVASP-18961.cif,0.632,1.513,mBJ,0.881,-2.25693,,Pnma
JVASP-13064,Tl2Au4S3,FAILED_JVASP-13064.cif,1.14,1.578,mBJ,0.438,-0.2711,,Pmmn
JVASP-52221,Li2AgF3,FAILED_JVASP-52221.cif,1.614,3.362,mBJ,1.748,-2.35719,,Pnma
JVASP-105363,TmNiGe,FAILED_JVASP-105363.cif,0.0,0.0,mBJ,0.0,-0.76353,,C2/m
JVASP-4630,TlPt2S3,FAILED_JVASP-4630.cif,1.064,1.256,mBJ,0.192,-0.4849,,P-3m1
JVASP-15520,MnNi2Sb,FAILED_JVASP-15520.cif,0.0,0.0,mBJ,0.0,-0.03629,,Fm-3m
JVASP-104589,LiAcRh2,FAILED_JVASP-104589.cif,0.158,0.157,mBJ,-0.001,-0.40999,,Fm-3m
JVASP-102783,CdTe2Pb,FAILED_JVASP-102783.cif,0.0,0.0,mBJ,0.0,-0.33117,,P4/mmm
JVASP-106909,K2GaHgF6,FAILED_JVASP-106909.cif,0.0,1.253,mBJ,1.253,-2.45761,,Fm-3m
JVASP-15722,NaTiO2,FAILED_JVASP-15722.cif,0.0,3.951,mBJ,3.951,-2.68154,,R-3m
JVASP-18461,UBrN,FAILED_JVASP-18461.cif,0.0,0.0,mBJ,0.0,-1.62375,,P4/nmm
JVASP-104856,LiMgIn2,FAILED_JVASP-104856.cif,0.0,0.0,mBJ,0.0,-0.21935,,Fm-3m
JVASP-1264,K2O,FAILED_JVASP-1264.cif,2.034,5.371,mBJ,3.337,-1.2572,,Fm-3m
JVASP-3486,CdIn2Te4,FAILED_JVASP-3486.cif,0.715,1.715,mBJ,1.0,-0.35085,,I-4
JVASP-19062,SrZrO3,FAILED_JVASP-19062.cif,3.592,4.493,mBJ,0.901,-3.57492,,Cmcm
JVASP-22689,Ba2H6Ru,FAILED_JVASP-22689.cif,1.854,2.152,mBJ,0.298,-0.58153,,Fm-3m
JVASP-106404,Rb2LiNbF6,FAILED_JVASP-106404.cif,0.0,1.152,mBJ,1.152,-2.9873,,Fm-3m
JVASP-107344,DyErTe2,FAILED_JVASP-107344.cif,0.0,0.0,mBJ,0.0,-1.28325,,P4/mmm
JVASP-107136,Na2HgPdF6,FAILED_JVASP-107136.cif,0.0,1.466,mBJ,1.466,-1.76201,,Fm-3m
JVASP-107183,Li2TlCd,FAILED_JVASP-107183.cif,0.0,0.0,mBJ,0.0,-0.30668,,Fm-3m
JVASP-16216,AlCr2C,FAILED_JVASP-16216.cif,0.0,0.0,mBJ,0.0,-0.19861,,P6_3/mmc
JVASP-2487,NaMgAs,FAILED_JVASP-2487.cif,1.157,2.227,mBJ,1.07,-0.70977,,P4/nmm
JVASP-18509,Ag8S,FAILED_JVASP-18509.cif,0.0,0.0,mBJ,0.0,0.15629,,Immm
JVASP-102580,Xe,FAILED_JVASP-102580.cif,6.07,7.697,mBJ,1.627,-0.02384,,R-3m
JVASP-107633,Rb2TlAsF6,FAILED_JVASP-107633.cif,2.682,3.452,mBJ,0.77,-2.4329,,Fm-3m
JVASP-19884,ZnPt,FAILED_JVASP-19884.cif,0.0,0.0,mBJ,0.0,-0.5543,,P4/mmm
JVASP-104804,K2TlAuF6,FAILED_JVASP-104804.cif,0.0,0.0,mBJ,0.0,-1.99489,,Fm-3m
JVASP-22606,MnSnF6,FAILED_JVASP-22606.cif,0.0,0.0,mBJ,0.0,-2.25009,,R-3
JVASP-32151,H6PbCNCl3,FAILED_JVASP-32151.cif,2.738,3.58,mBJ,0.842,-0.58891,,Pm
JVASP-2250,TbAgTe2,FAILED_JVASP-2250.cif,0.869,1.297,mBJ,0.428,-0.93079,,P-42_1m
JVASP-106562,MgPd3,FAILED_JVASP-106562.cif,0.0,0.0,mBJ,0.0,-0.50721,,I4/mmm
JVASP-106964,LiScIn2,FAILED_JVASP-106964.cif,0.0,0.0,mBJ,0.0,-0.40113,,Fm-3m
JVASP-14688,SiPd,FAILED_JVASP-14688.cif,0.0,0.0,mBJ,0.0,-0.45199,,Pnma
JVASP-107569,CeZnAgP2,FAILED_JVASP-107569.cif,0.005,0.0,mBJ,-0.005,-0.6904,,P3m1
JVASP-106742,Sn2PdAu,FAILED_JVASP-106742.cif,0.0,0.0,mBJ,0.0,-0.3472,,P-3m1
JVASP-106686,ZnHgTe2,FAILED_JVASP-106686.cif,0.0,0.77,mBJ,0.77,-0.20174,,P-4m2
JVASP-107238,Yb2ZnGe,FAILED_JVASP-107238.cif,0.0,0.0,mBJ,0.0,-0.68197,,Fm-3m
JVASP-52906,ZnH2O2,FAILED_JVASP-52906.cif,3.152,5.412,mBJ,2.26,-1.22906,,P2_12_12_1
JVASP-104553,AlGaNi2,FAILED_JVASP-104553.cif,0.0,0.0,mBJ,0.0,-0.50797,,Fm-3m
JVASP-102529,Mg2IrRh,FAILED_JVASP-102529.cif,0.0,0.0,mBJ,0.0,-0.45522,,Fm-3m
JVASP-16136,ZrSnTe,FAILED_JVASP-16136.cif,0.0,0.0,mBJ,0.0,-0.6982,,P4/nmm
JVASP-19079,NaBO2,FAILED_JVASP-19079.cif,4.487,7.06,mBJ,2.573,-2.4312,,R-3c
JVASP-1657,RbNdS2,FAILED_JVASP-1657.cif,2.252,3.394,mBJ,1.142,-1.99887,,R-3m
JVASP-14735,SnP,FAILED_JVASP-14735.cif,0.0,0.0,mBJ,0.0,-0.0332,,Fm-3m
JVASP-102785,CdAsP,FAILED_JVASP-102785.cif,0.364,1.039,mBJ,0.675,-0.0682,,I2_12_12_1
JVASP-107460,LiPm2Pb,FAILED_JVASP-107460.cif,0.0,0.0,mBJ,0.0,-0.34213,,Fm-3m
JVASP-102672,SrZnIn3,FAILED_JVASP-102672.cif,0.0,0.0,mBJ,0.0,-0.35038,,I4mm
JVASP-4213,CaSn,FAILED_JVASP-4213.cif,0.0,0.0,mBJ,0.0,-0.72991,,Cmcm
JVASP-106910,K2HgBiF6,FAILED_JVASP-106910.cif,0.0,0.873,mBJ,0.873,-2.24725,,Fm-3m
JVASP-104694,SnSb,FAILED_JVASP-104694.cif,0.0,0.0,mBJ,0.0,0.0258,,P4/mmm
JVASP-18957,Ti2Cu,FAILED_JVASP-18957.cif,0.0,0.0,mBJ,0.0,-0.1292,,I4/mmm
JVASP-102627,CaAgSn,FAILED_JVASP-102627.cif,0.0,0.0,mBJ,0.0,-0.58668,,P-6m2
JVASP-105519,Er2Ga3Ni,FAILED_JVASP-105519.cif,0.0,0.0,mBJ,0.0,-0.67025,,Cm
JVASP-1513,TiCoSb,FAILED_JVASP-1513.cif,1.071,1.065,mBJ,-0.006,-0.65412,,F-43m
JVASP-4143,KBiO2,FAILED_JVASP-4143.cif,2.002,3.309,mBJ,1.307,-1.54377,,C2/c
JVASP-107685,Pm2AgAu,FAILED_JVASP-107685.cif,0.0,0.0,mBJ,0.0,-0.60002,,Fm-3m
JVASP-104590,LiMgCd2,FAILED_JVASP-104590.cif,0.0,0.0,mBJ,0.0,-0.24222,,Fm-3m
JVASP-106852,AlInCu2Se4,FAILED_JVASP-106852.cif,0.192,0.689,mBJ,0.497,-0.56277,,I-4
JVASP-104805,K2NaAuF6,FAILED_JVASP-104805.cif,0.565,1.844,mBJ,1.279,-2.2319,,Fm-3m
JVASP-186,CrO2,FAILED_JVASP-186.cif,0.0,0.0,mBJ,0.0,-1.89099,,C2/m
JVASP-107510,TmAlGa,FAILED_JVASP-107510.cif,0.0,0.0,mBJ,0.0,-0.57197,,C2/m