material_id,formula,cif_path,pbe_bandgap,hse_bandgap,gap_type,correction,formation_energy,total_energy,spacegroup
JVASP-104868,PmSmIr2,FAILED_JVASP-104868.cif,0.0,0.0,mBJ,0.0,-0.76097,,Fm-3m
JVASP-102634,K2TaNbO6,FAILED_JVASP-102634.cif,1.747,2.593,mBJ,0.846,-2.80636,,Fm-3m
JVASP-102481,Dy2ZnAg,FAILED_JVASP-102481.cif,0.0,0.0,mBJ,0.0,-0.37089,,Fm-3m
JVASP-29311,UH2O4,FAILED_JVASP-29311.cif,2.632,2.54,mBJ,-0.092,-2.25082,,Pbca
JVASP-107023,TiNi2Sn,FAILED_JVASP-107023.cif,0.0,0.0,mBJ,0.0,-0.34721,,P4/mmm
JVASP-104600,Na3Cd,FAILED_JVASP-104600.cif,0.0,0.0,mBJ,0.0,-0.09555,,Fm-3m
JVASP-1567,KErO2,FAILED_JVASP-1567.cif,4.114,5.992,mBJ,1.878,-3.06388,,R-3m
JVASP-15096,UAl3Ni2,FAILED_JVASP-15096.cif,0.0,0.0,mBJ,0.0,-0.42979,,P6/mmm
JVASP-18678,Hf2Cu,FAILED_JVASP-18678.cif,0.0,0.0,mBJ,0.0,-0.17871,,I4/mmm
JVASP-22572,SiO2,FAILED_JVASP-22572.cif,5.74,8.658,mBJ,2.918,-2.86857,,I-4
JVASP-2607,Na2CuP,FAILED_JVASP-2607.cif,0.786,1.301,mBJ,0.515,-0.44336,,Cmcm
JVASP-15631,CeSi2Pt2,FAILED_JVASP-15631.cif,0.0,0.0,mBJ,0.0,-0.93773,,I4/mmm
JVASP-21245,NaNbO3,FAILED_JVASP-21245.cif,1.768,2.391,mBJ,0.623,-2.61248,,Cmcm
JVASP-49166,SnB4O7,FAILED_JVASP-49166.cif,3.754,4.992,mBJ,1.238,-2.38666,,Pmn2_1
JVASP-105311,CaBPd3,FAILED_JVASP-105311.cif,0.0,0.0,mBJ,0.0,-0.58055,,Pm-3m
JVASP-104928,Sr2PtAu,FAILED_JVASP-104928.cif,0.0,0.0,mBJ,0.0,-0.95651,,Amm2
JVASP-106802,HoAlNi4,FAILED_JVASP-106802.cif,0.0,0.0,mBJ,0.0,-0.58453,,Cmmm
JVASP-107696,Ta3Ir,FAILED_JVASP-107696.cif,0.0,0.0,mBJ,0.0,-0.3527,,Fm-3m
JVASP-14738,ScPt3,FAILED_JVASP-14738.cif,0.0,0.0,mBJ,0.0,-1.08458,,Pm-3m
JVASP-19901,ThP,FAILED_JVASP-19901.cif,0.0,0.0,mBJ,0.0,-1.62394,,Fm-3m
JVASP-104761,AlSiCN,FAILED_JVASP-104761.cif,3.551,4.406,mBJ,0.855,-0.91115,,P3m1
JVASP-104654,ErBiPd,FAILED_JVASP-104654.cif,0.0,0.0,mBJ,0.0,-0.93467,,F-43m
JVASP-106755,PrYNi4,FAILED_JVASP-106755.cif,0.0,0.0,mBJ,0.0,-0.41819,,F-43m
JVASP-15294,Ce2SO2,FAILED_JVASP-15294.cif,0.0,0.0,mBJ,0.0,-3.25755,,P-3m1
JVASP-105103,LiO,FAILED_JVASP-105103.cif,0.0,0.0,mBJ,0.0,-1.25528,,Pm-3m
JVASP-51165,TeRuSe,FAILED_JVASP-51165.cif,0.0,0.0,mBJ,0.0,0.99922,,F-43m
JVASP-15773,Sc2Sb,FAILED_JVASP-15773.cif,0.0,0.0,mBJ,0.0,-0.80312,,P4/nmm
JVASP-105372,TiAl3,FAILED_JVASP-105372.cif,0.0,0.0,mBJ,0.0,-0.24704,,Pmm2
JVASP-104828,V2ZnO6,FAILED_JVASP-104828.cif,2.165,2.506,mBJ,0.341,-2.27595,,C2/m
JVASP-4152,NdO2,FAILED_JVASP-4152.cif,3.604,4.797,mBJ,1.193,-3.07087,,C2/m
JVASP-107083,ScSe2,FAILED_JVASP-107083.cif,0.0,0.0,mBJ,0.0,-1.36765,,P4/nmm
JVASP-18643,Ca3Pb,FAILED_JVASP-18643.cif,0.0,0.0,mBJ,0.0,-0.45302,,Pm-3m
JVASP-107466,NaCd3,FAILED_JVASP-107466.cif,0.0,0.0,mBJ,0.0,-0.12657,,I4/mmm
JVASP-106930,Li5FeS4,FAILED_JVASP-106930.cif,0.0,0.0,mBJ,0.0,-1.11227,,Immm
JVASP-106867,TaSeN,FAILED_JVASP-106867.cif,0.0,0.168,mBJ,0.168,-0.82961,,P4/nmm
JVASP-106487,Ag3As,FAILED_JVASP-106487.cif,0.0,0.0,mBJ,0.0,0.09851,,I4/mmm
JVASP-18761,Ni4W,FAILED_JVASP-18761.cif,0.0,0.0,mBJ,0.0,-0.12166,,I4/m
JVASP-28457,Te2Mo,FAILED_JVASP-28457.cif,1.133,1.18,mBJ,0.047,-0.20266,,P-6m2
JVASP-1573,RbNdO2,FAILED_JVASP-1573.cif,3.449,5.043,mBJ,1.594,-2.81124,,R-3m
JVASP-104870,PmTmTl2,FAILED_JVASP-104870.cif,0.0,0.0,mBJ,0.0,-0.35905,,Fm-3m
JVASP-14692,ZrAl3,FAILED_JVASP-14692.cif,0.0,0.0,mBJ,0.0,-0.49443,,I4/mmm
JVASP-15523,Zr2SbP,FAILED_JVASP-15523.cif,0.0,0.0,mBJ,0.0,-1.17198,,P6_3/mmc
JVASP-104929,Sr2AlIn3,FAILED_JVASP-104929.cif,0.0,0.0,mBJ,0.0,-0.48393,,P3m1
JVASP-16012,ZrCuF6,FAILED_JVASP-16012.cif,0.0,0.0,mBJ,0.0,-2.99798,,R-3
JVASP-15632,U2SN2,FAILED_JVASP-15632.cif,0.0,0.0,mBJ,0.0,-1.76025,,P-3m1
JVASP-28395,YFe2Bi2Se2O4,FAILED_JVASP-28395.cif,0.0,0.0,mBJ,0.0,-1.4957,,I4/mmm
JVASP-107522,SrCdGa,FAILED_JVASP-107522.cif,0.0,0.0,mBJ,0.0,-0.49233,,C2/m
JVASP-18855,Np3Al,FAILED_JVASP-18855.cif,0.0,0.0,mBJ,0.0,0.04224,,Pm-3m
JVASP-15123,NdMn2Si2,FAILED_JVASP-15123.cif,0.0,0.0,mBJ,0.0,-0.50861,,I4/mmm
JVASP-18808,YAlSi,FAILED_JVASP-18808.cif,0.0,0.0,mBJ,0.0,-0.64328,,Cmcm
JVASP-106628,Zn3Au,FAILED_JVASP-106628.cif,0.0,0.0,mBJ,0.0,-0.14882,,P6_3/mmc
JVASP-15475,YCo2Ge2,FAILED_JVASP-15475.cif,0.0,0.0,mBJ,0.0,-0.62763,,I4/mmm
JVASP-15589,ThSi2Pd2,FAILED_JVASP-15589.cif,0.0,0.0,mBJ,0.0,-0.88401,,I4/mmm
JVASP-102635,YbZn2Ge2,FAILED_JVASP-102635.cif,0.0,0.0,mBJ,0.0,-0.40785,,I4/mmm
JVASP-13418,KSiH3,FAILED_JVASP-13418.cif,2.491,3.446,mBJ,0.955,-0.19634,,Pnma
JVASP-106932,AcSe3,FAILED_JVASP-106932.cif,0.0,0.0,mBJ,0.0,-1.1699,,I4/mmm
JVASP-107697,TbDyIr2,FAILED_JVASP-107697.cif,0.0,0.0,mBJ,0.0,-0.93623,,Fm-3m
JVASP-18883,CoO2,FAILED_JVASP-18883.cif,0.0,0.0,mBJ,0.0,-0.99171,,P-3m1
JVASP-2610,K2AgAs,FAILED_JVASP-2610.cif,1.287,2.087,mBJ,0.8,-0.47621,,Cmcm
JVASP-42218,Fe3O5F,FAILED_JVASP-42218.cif,0.0,0.0,mBJ,0.0,-1.50999,,P-1
JVASP-19902,ScGa3,FAILED_JVASP-19902.cif,0.0,0.0,mBJ,0.0,-0.48326,,Pm-3m
JVASP-107194,MgAg2,FAILED_JVASP-107194.cif,0.0,0.0,mBJ,0.0,-0.20821,,Cmcm
JVASP-43164,Li2MnFeO4,FAILED_JVASP-43164.cif,0.0,0.0,mBJ,0.0,-1.87462,,I-4m2
JVASP-13419,Sb2S2O,FAILED_JVASP-13419.cif,1.366,2.294,mBJ,0.928,-0.70328,,P-1
JVASP-102482,DyTmRh2,FAILED_JVASP-102482.cif,0.0,0.0,mBJ,0.0,-0.97822,,Fm-3m
JVASP-18679,HfCuHg2,FAILED_JVASP-18679.cif,0.0,0.0,mBJ,0.0,0.26672,,F-43m
JVASP-106525,HfZnPd2,FAILED_JVASP-106525.cif,0.0,0.0,mBJ,0.0,-0.68016,,Fm-3m
JVASP-104658,DyHSe,FAILED_JVASP-104658.cif,1.668,2.5,mBJ,0.832,-1.53596,,P-6m2
JVASP-102537,NdYMg2,FAILED_JVASP-102537.cif,0.0,0.0,mBJ,0.0,-0.12796,,Fm-3m
JVASP-2502,InF3,FAILED_JVASP-2502.cif,4.183,7.125,mBJ,2.942,-2.58913,,R-3c
JVASP-42497,Ti3N2O3,FAILED_JVASP-42497.cif,1.665,2.024,mBJ,0.359,-2.49927,,Cm
JVASP-2077,DyTlS2,FAILED_JVASP-2077.cif,1.652,2.326,mBJ,0.674,-1.62115,,R-3m
JVASP-104604,NdDyIn2,FAILED_JVASP-104604.cif,0.0,0.0,mBJ,0.0,-0.49932,,Fm-3m
JVASP-16036,Ti2N,FAILED_JVASP-16036.cif,0.0,0.0,mBJ,0.0,-1.41598,,P4_2/mnm
JVASP-102686,SbPbIO2,FAILED_JVASP-102686.cif,1.689,2.101,mBJ,0.412,-1.19832,,I4mm
JVASP-106629,ZrCdAg2,FAILED_JVASP-106629.cif,0.0,0.0,mBJ,0.0,-0.12621,,Fm-3m
JVASP-1576,RbSmO2,FAILED_JVASP-1576.cif,3.517,5.351,mBJ,1.834,-2.86903,,R-3m
JVASP-52227,TbBi5O9,FAILED_JVASP-52227.cif,1.848,2.713,mBJ,0.865,-1.71061,,P1
JVASP-3042,NaSrAs,FAILED_JVASP-3042.cif,1.059,1.899,mBJ,0.84,-0.97315,,P-62m
JVASP-12943,Si2Hg6O7,FAILED_JVASP-12943.cif,1.459,1.988,mBJ,0.529,-1.22356,,C2/m
JVASP-50062,LiSbPHO5,FAILED_JVASP-50062.cif,2.738,3.45,mBJ,0.712,-1.86936,,P-1
JVASP-13067,TlBSe3,FAILED_JVASP-13067.cif,0.923,1.867,mBJ,0.944,-0.22902,,Cc
JVASP-107154,MgO2,FAILED_JVASP-107154.cif,2.526,4.327,mBJ,1.801,-1.88888,,R-3m
JVASP-105546,BeZnS2,FAILED_JVASP-105546.cif,2.934,3.915,mBJ,0.981,-1.03393,,R3m
JVASP-107698,TbPmIr2,FAILED_JVASP-107698.cif,0.0,0.0,mBJ,0.0,-0.81994,,Fm-3m
JVASP-107084,YBC,FAILED_JVASP-107084.cif,0.0,0.0,mBJ,0.0,-0.40187,,P6_3/mmc
JVASP-102483,Dy2InAg,FAILED_JVASP-102483.cif,0.0,0.0,mBJ,0.0,-0.4288,,Fm-3m
JVASP-104931,SmZnAgP2,FAILED_JVASP-104931.cif,0.398,0.744,mBJ,0.346,-0.70985,,P3m1
JVASP-105316,Si2Rh3,FAILED_JVASP-105316.cif,0.0,0.0,mBJ,0.0,-0.72075,,P-3m1
JVASP-107648,Cd3Ir,FAILED_JVASP-107648.cif,0.0,0.0,mBJ,0.0,0.05893,,I4/mmm
JVASP-4020,DySBr,FAILED_JVASP-4020.cif,2.771,3.594,mBJ,0.823,-2.11604,,Pmmn
JVASP-15590,USi2Au2,FAILED_JVASP-15590.cif,0.0,0.0,mBJ,0.0,-0.17793,,I4/mmm
JVASP-2388,BaCeN2,FAILED_JVASP-2388.cif,0.715,1.106,mBJ,0.391,-1.2532,,P6_3/mmc
JVASP-104983,AlNiF5,FAILED_JVASP-104983.cif,0.476,0.795,mBJ,0.319,-2.83603,,Immm
JVASP-107025,TiInPt2,FAILED_JVASP-107025.cif,0.0,0.0,mBJ,0.0,-0.70998,,P4/mmm
JVASP-15524,NbAlCo2,FAILED_JVASP-15524.cif,0.0,0.0,mBJ,0.0,-0.41712,,Fm-3m
JVASP-104764,Al3GaN4,FAILED_JVASP-104764.cif,3.505,4.3,mBJ,0.795,-1.3839,,Pm
JVASP-104660,SmSbPd,FAILED_JVASP-104660.cif,0.0,0.0,mBJ,0.0,-1.08116,,P6_3mc
JVASP-106633,DySiOs2C,FAILED_JVASP-106633.cif,0.0,0.0,mBJ,0.0,-0.52572,,Cmcm
JVASP-2505,RbCdF3,FAILED_JVASP-2505.cif,3.269,6.286,mBJ,3.017,-2.59223,,Pm-3m
JVASP-2080,ZrCoBi,FAILED_JVASP-2080.cif,0.986,1.03,mBJ,0.044,-0.45555,,F-43m
JVASP-47645,Li3Cu2F8,FAILED_JVASP-47645.cif,0.03,0.0,mBJ,-0.03,-2.26202,,P2_1/c
JVASP-14693,YbGa,FAILED_JVASP-14693.cif,0.0,0.0,mBJ,0.0,-0.59283,,Pm-3m
JVASP-13350,TaBi3O7,FAILED_JVASP-13350.cif,2.024,2.947,mBJ,0.923,-1.79893,,P1
JVASP-106756,Pr2Ga5Au3,FAILED_JVASP-106756.cif,0.0,0.0,mBJ,0.0,-0.66676,,P-4m2
JVASP-59682,RbHgN3O6,FAILED_JVASP-59682.cif,0.0,0.0,mBJ,0.0,0.34352,,Pm-3
JVASP-104932,ScInP2,FAILED_JVASP-104932.cif,0.938,1.437,mBJ,0.499,-0.61032,,P-4m2
JVASP-105161,DyTmRu2,FAILED_JVASP-105161.cif,0.0,0.0,mBJ,0.0,-0.43568,,Fm-3m
JVASP-13421,PtS2Cl8,FAILED_JVASP-13421.cif,1.8,2.353,mBJ,0.553,-0.3246,,P2_1/c
JVASP-106805,In3Pt5,FAILED_JVASP-106805.cif,0.0,0.0,mBJ,0.0,-0.30408,,P-6m2
JVASP-15634,HfAlNi2,FAILED_JVASP-15634.cif,0.0,0.0,mBJ,0.0,-0.65658,,Fm-3m
JVASP-4313,PS,FAILED_JVASP-4313.cif,1.929,2.624,mBJ,0.695,-0.16305,,C2/c
JVASP-13283,Pr5CuSe8,FAILED_JVASP-13283.cif,1.0,0.975,mBJ,-0.025,-1.72422,,I-4
JVASP-18680,ZrCuHg2,FAILED_JVASP-18680.cif,0.0,0.0,mBJ,0.0,0.15755,,F-43m
JVASP-107699,TmCo2Sn,FAILED_JVASP-107699.cif,0.0,0.0,mBJ,0.0,-0.32735,,Fm-3m
JVASP-15422,YbSi2Pd2,FAILED_JVASP-15422.cif,0.0,0.0,mBJ,0.0,-0.80482,,I4/mmm
JVASP-105254,Sr2MgTl,FAILED_JVASP-105254.cif,0.0,0.0,mBJ,0.0,-0.33085,,Fm-3m
JVASP-2613,K2AgSb,FAILED_JVASP-2613.cif,1.267,1.96,mBJ,0.693,-0.47228,,Cmcm
JVASP-107469,Pm2CdGa,FAILED_JVASP-107469.cif,0.0,0.0,mBJ,0.0,-0.47185,,Fm-3m
JVASP-104874,Sr2TlPb,FAILED_JVASP-104874.cif,0.0,0.0,mBJ,0.0,-0.5827,,Fm-3m
JVASP-15249,NdSi2Rh2,FAILED_JVASP-15249.cif,0.0,0.0,mBJ,0.0,-1.03183,,I4/mmm
JVASP-2709,K2PdF6,FAILED_JVASP-2709.cif,2.01,1.915,mBJ,-0.095,-2.25966,,P-3m1
JVASP-29314,ZrMo2O8,FAILED_JVASP-29314.cif,3.172,3.773,mBJ,0.601,-2.53051,,P-3m1
JVASP-51238,BaYSc,FAILED_JVASP-51238.cif,0.0,0.0,mBJ,0.0,0.79712,,F-43m
JVASP-102739,K2Zn3GeAs4,FAILED_JVASP-102739.cif,0.0,0.265,mBJ,0.265,-0.34223,,C222
JVASP-18722,HoIn,FAILED_JVASP-18722.cif,0.0,0.0,mBJ,0.0,-0.46114,,Pm-3m
JVASP-106938,CaInAg2,FAILED_JVASP-106938.cif,0.0,0.0,mBJ,0.0,-0.35297,,Fm-3m
JVASP-49907,CaBe3O4,FAILED_JVASP-49907.cif,4.062,6.418,mBJ,2.356,-3.00256,,P-62c
JVASP-106441,Rb2SbAuF6,FAILED_JVASP-106441.cif,0.797,2.17,mBJ,1.373,-2.20559,,Fm-3m
JVASP-2265,CdGeP2,FAILED_JVASP-2265.cif,0.482,1.646,mBJ,1.164,-0.102,,I-42d
JVASP-18532,CaMn2Bi2,FAILED_JVASP-18532.cif,0.0,0.0,mBJ,0.0,0.08257,,P-3m1
JVASP-107157,ZrSnRu2,FAILED_JVASP-107157.cif,0.0,0.0,mBJ,0.0,-0.57883,,Fm-3m
JVASP-19854,AlPd,FAILED_JVASP-19854.cif,0.0,0.0,mBJ,0.0,-0.85016,,Pm-3m
JVASP-104497,LiAgSe,FAILED_JVASP-104497.cif,0.0,1.137,mBJ,1.137,-0.55662,,F-43m
JVASP-106634,Pr2MgSi2,FAILED_JVASP-106634.cif,0.0,0.0,mBJ,0.0,-0.6726,,P4/mbm
JVASP-1681,SrHfN2,FAILED_JVASP-1681.cif,0.362,1.478,mBJ,1.116,-1.61983,,R-3m
JVASP-107197,MgPt5,FAILED_JVASP-107197.cif,0.0,0.0,mBJ,0.0,-0.35446,,P-62m
JVASP-45602,SbPO5,FAILED_JVASP-45602.cif,2.36,3.534,mBJ,1.174,-1.78716,,Fddd
JVASP-3045,K2AgP,FAILED_JVASP-3045.cif,1.26,2.109,mBJ,0.849,-0.4462,,Cmcm
JVASP-105164,ErCdAu2,FAILED_JVASP-105164.cif,0.0,0.0,mBJ,0.0,-0.73178,,Fm-3m
JVASP-1228,SnO2,FAILED_JVASP-1228.cif,0.895,2.385,mBJ,1.49,-1.78587,,P4_2/mnm
JVASP-107470,PmHoRu2,FAILED_JVASP-107470.cif,0.0,0.0,mBJ,0.0,-0.29834,,Fm-3m
JVASP-105255,Sr2ZnHg,FAILED_JVASP-105255.cif,0.0,0.0,mBJ,0.0,-0.4138,,Fm-3m
JVASP-104607,PmZnHg2,FAILED_JVASP-104607.cif,0.0,0.0,mBJ,0.0,-0.25322,,Fm-3m
JVASP-1516,RbHoO2,FAILED_JVASP-1516.cif,3.678,5.47,mBJ,1.792,-2.98582,,R-3m
JVASP-2083,TaSbRu,FAILED_JVASP-2083.cif,0.875,1.064,mBJ,0.189,-0.32703,,F-43m
JVASP-22691,Na2H4Pt,FAILED_JVASP-22691.cif,2.501,3.613,mBJ,1.112,-0.38756,,I4/mmm
JVASP-4023,DySI,FAILED_JVASP-4023.cif,2.577,3.087,mBJ,0.51,-1.89552,,Pmmn
JVASP-107525,SnSb,FAILED_JVASP-107525.cif,0.0,0.0,mBJ,0.0,0.12057,,R3m
JVASP-104766,AlGaN2,FAILED_JVASP-104766.cif,2.776,3.571,mBJ,0.795,-1.11182,,P3m1
JVASP-106488,Ag3Au,FAILED_JVASP-106488.cif,0.0,0.0,mBJ,0.0,-0.05734,,I4/mmm
JVASP-104933,SbPb,FAILED_JVASP-104933.cif,0.0,0.0,mBJ,0.0,0.09809,,Cmmm
JVASP-15176,Ti3AlC,FAILED_JVASP-15176.cif,0.0,0.0,mBJ,0.0,-0.61056,,Pm-3m
JVASP-19841,ThCo5,FAILED_JVASP-19841.cif,0.0,0.0,mBJ,0.0,-0.13388,,P6/mmm
JVASP-5701,CuAsSe2,FAILED_JVASP-5701.cif,0.576,0.836,mBJ,0.26,-0.01613,,R3m
JVASP-104665,ZnGaPSe,FAILED_JVASP-104665.cif,1.127,2.383,mBJ,1.256,-0.56106,,R3m
JVASP-106579,PmDyTl2,FAILED_JVASP-106579.cif,0.0,0.0,mBJ,0.0,-0.38527,,Fm-3m
JVASP-15250,TiCo2Si,FAILED_JVASP-15250.cif,0.0,0.0,mBJ,0.0,-0.61822,,Fm-3m
JVASP-107471,PmI,FAILED_JVASP-107471.cif,0.0,0.0,mBJ,0.0,-0.98275,,P-6m2
JVASP-104498,NaCaSb,FAILED_JVASP-104498.cif,0.86,1.225,mBJ,0.365,-0.60225,,F-43m
JVASP-15526,HoNiC2,FAILED_JVASP-15526.cif,0.0,0.0,mBJ,0.0,-0.42257,,Amm2
JVASP-107258,TbCdPd,FAILED_JVASP-107258.cif,0.0,0.0,mBJ,0.0,-0.73415,,P-62m
JVASP-106758,Pr2Si3Ni,FAILED_JVASP-106758.cif,0.0,0.0,mBJ,0.0,-0.66407,,P-6m2
JVASP-107701,YbNdPd2,FAILED_JVASP-107701.cif,0.0,0.0,mBJ,0.0,-0.9121,,Fm-3m
JVASP-107528,RbMnCuS2,FAILED_JVASP-107528.cif,0.378,1.255,mBJ,0.877,-0.80573,,I-4m2
JVASP-15693,Mn2Sb,FAILED_JVASP-15693.cif,0.0,0.0,mBJ,0.0,0.33303,,P6_3/mmc
JVASP-16921,AgN,FAILED_JVASP-16921.cif,0.0,0.0,mBJ,0.0,1.69868,,Pm-3m
JVASP-15809,Nb2CrSe4,FAILED_JVASP-15809.cif,0.0,0.0,mBJ,0.0,-0.74992,,C2/m
JVASP-43167,Li2TiCo3O8,FAILED_JVASP-43167.cif,0.0,0.0,mBJ,0.0,-1.90787,,R-3m
JVASP-2616,RbScO2,FAILED_JVASP-2616.cif,3.538,4.591,mBJ,1.053,-2.949,,P6_3/mmc
JVASP-107652,Dy2PdRh,FAILED_JVASP-107652.cif,0.0,0.0,mBJ,0.0,-0.94436,,Fm-3m
JVASP-105549,BiAsPd6,FAILED_JVASP-105549.cif,0.0,0.0,mBJ,0.0,-0.20252,,R-3m
JVASP-104608,RbNa2Bi,FAILED_JVASP-104608.cif,0.007,0.852,mBJ,0.845,-0.46407,,Fm-3m
JVASP-2961,RbAu3Se2,FAILED_JVASP-2961.cif,1.663,2.325,mBJ,0.662,-0.42478,,P-3m1
JVASP-107361,Be4CuSi,FAILED_JVASP-107361.cif,0.0,0.0,mBJ,0.0,0.10655,,F-43m
JVASP-13351,SrNd2S4,FAILED_JVASP-13351.cif,2.127,2.748,mBJ,0.621,-2.28757,,I-42d
JVASP-15129,UTeO,FAILED_JVASP-15129.cif,0.0,0.0,mBJ,0.0,-2.18745,,P4/nmm
JVASP-102637,YbMgGa4,FAILED_JVASP-102637.cif,0.0,0.0,mBJ,0.0,-0.44867,,P-6m2
JVASP-1519,ScCuS2,FAILED_JVASP-1519.cif,0.926,1.037,mBJ,0.111,-1.40732,,P3m1
JVASP-107198,MgScIr2,FAILED_JVASP-107198.cif,0.0,0.0,mBJ,0.0,-0.82335,,Fm-3m
JVASP-57242,Sr2Fe2S2OF2,FAILED_JVASP-57242.cif,0.0,0.0,mBJ,0.0,-2.20998,,I4/mmm
JVASP-4026,BiTeCl,FAILED_JVASP-4026.cif,1.217,1.842,mBJ,0.625,-0.60494,,P6_3mc
JVASP-107307,NaSn2Pd3,FAILED_JVASP-107307.cif,0.0,0.0,mBJ,0.0,-0.45783,,P6mm
JVASP-18723,HoSnPd2,FAILED_JVASP-18723.cif,0.0,0.0,mBJ,0.0,-0.87944,,Fm-3m
JVASP-101929,MgH2C3O4,FAILED_JVASP-101929.cif,4.401,5.988,mBJ,1.587,-1.22258,,P1
JVASP-18536,PuGa,FAILED_JVASP-18536.cif,0.0,0.0,mBJ,0.0,-0.54119,,I4/mmm
JVASP-12022,VPO5,FAILED_JVASP-12022.cif,1.344,1.733,mBJ,0.389,-2.32182,,P4/n
JVASP-15980,SrSi2Ag2,FAILED_JVASP-15980.cif,0.0,0.0,mBJ,0.0,-0.30097,,I4/mmm
JVASP-18983,TiO2,FAILED_JVASP-18983.cif,2.254,2.653,mBJ,0.399,-3.24726,,Pbca
JVASP-55509,PbCO3,FAILED_JVASP-55509.cif,3.419,4.868,mBJ,1.449,-1.47777,,Pnma
JVASP-15423,TlCrTe2,FAILED_JVASP-15423.cif,0.0,0.0,mBJ,0.0,-0.2292,,P-3m1
JVASP-284,SnO2,FAILED_JVASP-284.cif,1.624,3.168,mBJ,1.544,-1.5912,,R-3m
JVASP-16038,LiNi2P2,FAILED_JVASP-16038.cif,0.0,0.0,mBJ,0.0,-0.59292,,I4/mmm
JVASP-275,PtO2,FAILED_JVASP-275.cif,1.51,1.833,mBJ,0.323,-0.58512,,P-3m1
JVASP-18958,HoP,FAILED_JVASP-18958.cif,0.0,0.0,mBJ,0.0,-1.71211,,Fm-3m
JVASP-2211,Al2CdSe4,FAILED_JVASP-2211.cif,2.094,3.22,mBJ,1.126,-0.86774,,I-4
JVASP-106580,PmMg3,FAILED_JVASP-106580.cif,0.0,0.0,mBJ,0.0,-0.13345,,Fm-3m
JVASP-12913,SbI2F6,FAILED_JVASP-12913.cif,0.394,1.34,mBJ,0.946,-1.78999,,P-1
JVASP-106529,Hf2CoCu,FAILED_JVASP-106529.cif,0.0,0.0,mBJ,0.0,-0.28591,,Fm-3m
JVASP-14695,Te2Pt,FAILED_JVASP-14695.cif,0.0,0.0,mBJ,0.0,-0.37098,,P-3m1
JVASP-106759,PdRhPb4,FAILED_JVASP-106759.cif,0.0,0.0,mBJ,0.0,-0.1258,,I422
JVASP-18645,Ca3Tl,FAILED_JVASP-18645.cif,0.0,0.0,mBJ,0.0,-0.21556,,Fm-3m
JVASP-50214,Y2SeO2,FAILED_JVASP-50214.cif,2.329,3.208,mBJ,0.879,-3.2961,,I4/mmm
JVASP-107159,AcSnPd2,FAILED_JVASP-107159.cif,0.0,0.0,mBJ,0.0,-0.6922,,Fm-3m
JVASP-106637,K2NaPdF6,FAILED_JVASP-106637.cif,0.409,1.424,mBJ,1.015,-2.41898,,I4/mmm
JVASP-2835,BaAg2S2,FAILED_JVASP-2835.cif,0.924,2.365,mBJ,1.441,-0.95738,,P-3m1
JVASP-1684,NbFeSb,FAILED_JVASP-1684.cif,0.748,0.726,mBJ,-0.022,-0.34131,,F-43m
JVASP-3048,Yb4As2O,FAILED_JVASP-3048.cif,0.98,1.884,mBJ,0.904,-2.00013,,I4/mmm
JVASP-105387,TbErTe2,FAILED_JVASP-105387.cif,0.0,0.0,mBJ,0.0,-1.29769,,P4/mmm
JVASP-106810,ErSi2Pt2,FAILED_JVASP-106810.cif,0.0,0.0,mBJ,0.0,-0.91606,,I4/mmm
JVASP-1256,PbF2,FAILED_JVASP-1256.cif,4.582,5.733,mBJ,1.151,-2.5073,,Fm-3m
JVASP-1426,ScSnAu,FAILED_JVASP-1426.cif,0.197,0.238,mBJ,0.041,-0.78179,,F-43m
JVASP-106530,Ho2InOs,FAILED_JVASP-106530.cif,0.0,0.0,mBJ,0.0,-0.34715,,Fm-3m
JVASP-13069,Na3BS3,FAILED_JVASP-13069.cif,2.684,3.955,mBJ,1.271,-1.07378,,C2/c
JVASP-54719,H4N2O3,FAILED_JVASP-54719.cif,0.544,1.242,mBJ,0.698,0.21807,,C2
JVASP-51277,KBIr2,FAILED_JVASP-51277.cif,0.0,0.0,mBJ,0.0,1.57493,,Fm-3m
JVASP-15694,CaGa,FAILED_JVASP-15694.cif,0.0,0.0,mBJ,0.0,-0.53844,,Cmcm
JVASP-14696,Tl,FAILED_JVASP-14696.cif,0.0,0.0,mBJ,0.0,0.00437,,Im-3m
JVASP-3051,RbSbF6,FAILED_JVASP-3051.cif,4.968,6.661,mBJ,1.693,-2.66278,,R-3
JVASP-107259,SrGa4Au3,FAILED_JVASP-107259.cif,0.0,0.0,mBJ,0.0,-0.49537,,P4/mmm
JVASP-18767,Li2AlRh,FAILED_JVASP-18767.cif,0.0,0.0,mBJ,0.0,-0.53433,,F-43m
JVASP-4759,YbNdSe3,FAILED_JVASP-4759.cif,0.0,0.0,mBJ,0.0,-1.72777,,Cmcm
JVASP-42513,LiCo2OF3,FAILED_JVASP-42513.cif,0.0,0.0,mBJ,0.0,-1.8172,,Pmc2_1
JVASP-105483,In2TeAs,FAILED_JVASP-105483.cif,0.0,0.0,mBJ,0.0,-0.12188,,R3m
JVASP-4690,ZnRe2O8,FAILED_JVASP-4690.cif,3.864,4.463,mBJ,0.599,-1.65691,,P-3
JVASP-106713,Ti3B4Mo,FAILED_JVASP-106713.cif,0.0,0.0,mBJ,0.0,-0.81579,,Pm
JVASP-102798,Be4AlNi,FAILED_JVASP-102798.cif,0.0,0.0,mBJ,0.0,-0.3402,,F-43m
JVASP-51206,NbBi2Mo,FAILED_JVASP-51206.cif,0.0,0.0,mBJ,0.0,0.71601,,F-43m
JVASP-107362,BeSiNi2,FAILED_JVASP-107362.cif,0.0,0.0,mBJ,0.0,-0.39451,,P4/mmm
JVASP-2268,ThTeO,FAILED_JVASP-2268.cif,0.447,0.626,mBJ,0.179,-2.80123,,P4/nmm
JVASP-55518,NaSbO3,FAILED_JVASP-55518.cif,1.613,3.086,mBJ,1.473,-1.69317,,Fd-3m
JVASP-104767,Al2CoRu,FAILED_JVASP-104767.cif,0.0,0.0,mBJ,0.0,-0.63403,,P4/mmm
JVASP-1435,LiAlSi,FAILED_JVASP-1435.cif,0.231,0.483,mBJ,0.252,-0.28686,,F-43m
JVASP-2130,Au2S,FAILED_JVASP-2130.cif,2.149,2.625,mBJ,0.476,-0.04796,,Pn-3m
JVASP-106760,PrGePd,FAILED_JVASP-106760.cif,0.0,0.0,mBJ,0.0,-0.87376,,C2/m
JVASP-51023,SrH4O3,FAILED_JVASP-51023.cif,4.546,7.322,mBJ,2.776,-1.53686,,P1
JVASP-19917,Cr3Rh,FAILED_JVASP-19917.cif,0.0,0.0,mBJ,0.0,0.05785,,Pm-3n
JVASP-54767,H4N2O3,FAILED_JVASP-54767.cif,2.605,3.538,mBJ,0.933,-0.09588,,Pmmn
JVASP-1522,NaNbN2,FAILED_JVASP-1522.cif,0.892,1.378,mBJ,0.486,-0.88866,,R-3m
JVASP-106583,PrAgAu2,FAILED_JVASP-106583.cif,0.0,0.0,mBJ,0.0,-0.63484,,Fm-3m
JVASP-106811,Er2AlCu,FAILED_JVASP-106811.cif,0.0,0.0,mBJ,0.0,-0.38055,,P4/mmm
JVASP-107427,GaPtO2,FAILED_JVASP-107427.cif,0.0,0.0,mBJ,0.0,-1.36011,,P6_3/mmc
JVASP-1606,NaErSe2,FAILED_JVASP-1606.cif,1.958,2.728,mBJ,0.77,-1.78877,,R-3m
JVASP-18607,Hf2Au,FAILED_JVASP-18607.cif,0.0,0.0,mBJ,0.0,-0.46422,,I4/mmm
JVASP-106714,TeMoSe,FAILED_JVASP-106714.cif,0.499,0.634,mBJ,0.135,-0.43793,,P-3m1
JVASP-55190,Rb2FeI4,FAILED_JVASP-55190.cif,0.0,0.0,mBJ,0.0,-0.9611,,P2_1
JVASP-3054,RbCaAs,FAILED_JVASP-3054.cif,1.514,2.53,mBJ,1.016,-0.96328,,P4/nmm
JVASP-107201,MnGaPd2,FAILED_JVASP-107201.cif,0.0,0.0,mBJ,0.0,-0.39165,,Fm-3m
JVASP-104882,KMnF3,FAILED_JVASP-104882.cif,1.445,2.064,mBJ,0.619,-2.7184,,Imma
JVASP-106641,LiLuGe,FAILED_JVASP-106641.cif,0.0,0.0,mBJ,0.0,-0.76542,,P-62m
JVASP-107654,ErInPt2,FAILED_JVASP-107654.cif,0.0,0.0,mBJ,0.0,-0.97895,,Fm-3m
JVASP-19815,ThMg2,FAILED_JVASP-19815.cif,0.0,0.0,mBJ,0.0,0.01279,,Fd-3m
JVASP-107476,SbPt3,FAILED_JVASP-107476.cif,0.0,0.0,mBJ,0.0,-0.08942,,P6_3/mmc
JVASP-52228,HoBO3,FAILED_JVASP-52228.cif,4.714,6.866,mBJ,2.152,-3.26421,,Ama2
JVASP-107428,MgF2,FAILED_JVASP-107428.cif,6.328,9.166,mBJ,2.838,-3.62073,,Imma
JVASP-107261,Mn3SnH,FAILED_JVASP-107261.cif,0.0,0.0,mBJ,0.0,0.07582,,Pm-3m
JVASP-2121,As2Ru,FAILED_JVASP-2121.cif,0.567,0.626,mBJ,0.059,-0.34808,,Pnnm
JVASP-104989,MoP2O7,FAILED_JVASP-104989.cif,0.0,0.302,mBJ,0.302,-2.11495,,C2
JVASP-55641,NaBrO3,FAILED_JVASP-55641.cif,4.453,5.698,mBJ,1.245,-0.6487,,P2_13