material_id,formula,cif_path,pbe_bandgap,hse_bandgap,gap_type,correction,formation_energy,total_energy,spacegroup
JVASP-15126,TbBPd3,FAILED_JVASP-15126.cif,0.0,0.0,mBJ,0.0,-0.61284,,Pm-3m
JVASP-105405,Sr2FeSnO6,FAILED_JVASP-105405.cif,0.0,0.0,mBJ,0.0,-2.27341,,Fm-3m
JVASP-5710,TmI2,FAILED_JVASP-5710.cif,0.0,3.094,mBJ,3.094,-1.18352,,P-3m1
JVASP-15256,FeCuPt2,FAILED_JVASP-15256.cif,0.0,0.0,mBJ,0.0,-0.15235,,P4/mmm
JVASP-2520,CaCd2As2,FAILED_JVASP-2520.cif,0.271,1.142,mBJ,0.871,-0.62438,,P-3m1
JVASP-22629,NiF2,FAILED_JVASP-22629.cif,0.0,0.0,mBJ,0.0,-1.59806,,P4_2/mnm
JVASP-15732,RbFeSe2,FAILED_JVASP-15732.cif,0.0,0.0,mBJ,0.0,-0.7083,,C2/c
JVASP-3084,Na3SbS4,FAILED_JVASP-3084.cif,1.892,2.841,mBJ,0.949,-0.86822,,I-43m
JVASP-13359,Na4S2O5,FAILED_JVASP-13359.cif,2.484,4.401,mBJ,1.917,-1.62239,,P1
JVASP-50067,YbCO3,FAILED_JVASP-50067.cif,4.208,6.11,mBJ,1.902,-2.57071,,Pnma
JVASP-3075,LiZnSb,FAILED_JVASP-3075.cif,0.522,0.998,mBJ,0.476,-0.39475,,P6_3mc
JVASP-47455,VSnO4,FAILED_JVASP-47455.cif,0.0,1.78,mBJ,1.78,-2.0659,,Cmmm
JVASP-107375,ZnPb2N2,FAILED_JVASP-107375.cif,0.716,0.993,mBJ,0.277,0.26518,,P-3m1
JVASP-7759,Y2SO2,FAILED_JVASP-7759.cif,3.116,4.29,mBJ,1.174,-3.46435,,P-3m1
JVASP-13005,Cd2P3Br,FAILED_JVASP-13005.cif,1.145,1.869,mBJ,0.724,-0.3344,,C2/c
JVASP-7802,Se,FAILED_JVASP-7802.cif,1.252,2.118,mBJ,0.866,0.04408,,R-3
JVASP-107548,MgAl2,FAILED_JVASP-107548.cif,0.0,0.0,mBJ,0.0,-0.00655,,P-3m1
JVASP-18543,Ho3AlC,FAILED_JVASP-18543.cif,0.0,0.0,mBJ,0.0,-0.46832,,Pm-3m
JVASP-7886,SmCrO3,FAILED_JVASP-7886.cif,0.033,0.0,mBJ,-0.033,-2.81477,,Pm-3m
JVASP-19089,Sc2S3,FAILED_JVASP-19089.cif,0.98,1.495,mBJ,0.515,-2.0882,,Fddd
JVASP-18688,CuSnRh2,FAILED_JVASP-18688.cif,0.0,0.0,mBJ,0.0,-0.30775,,Fm-3m
JVASP-7843,C,FAILED_JVASP-7843.cif,0.458,0.511,mBJ,0.053,0.00013,,R-3m
JVASP-18864,NbSbRh,FAILED_JVASP-18864.cif,0.0,0.916,mBJ,0.916,-0.29691,,F-43m
JVASP-107048,MgBe4Cu,FAILED_JVASP-107048.cif,0.0,0.0,mBJ,0.0,-0.08776,,F-43m
JVASP-7635,YSF,FAILED_JVASP-7635.cif,1.405,2.154,mBJ,0.749,-3.24483,,P4/nmm
JVASP-7949,UP,FAILED_JVASP-7949.cif,0.0,0.0,mBJ,0.0,-1.01041,,Fm-3m
JVASP-15387,ThMn2Si2,FAILED_JVASP-15387.cif,0.0,0.0,mBJ,0.0,-0.53793,,I4/mmm
JVASP-107549,LiSmS2,FAILED_JVASP-107549.cif,1.755,2.537,mBJ,0.782,-1.98454,,R-3m
JVASP-1687,LiZnP,FAILED_JVASP-1687.cif,1.47,1.928,mBJ,0.458,-0.60724,,F-43m
JVASP-107218,ScZnAu2,FAILED_JVASP-107218.cif,0.0,0.0,mBJ,0.0,-0.66397,,Fm-3m
JVASP-50389,Rb2ZrO3,FAILED_JVASP-50389.cif,3.92,5.119,mBJ,1.199,-2.68359,,Cmc2_1
JVASP-50615,BaCa2I6,FAILED_JVASP-50615.cif,3.762,4.619,mBJ,0.857,-1.72693,,P-31m
JVASP-18609,HoAu4,FAILED_JVASP-18609.cif,0.0,0.0,mBJ,0.0,-0.64428,,I4/m
JVASP-107491,Rb3FeF6,FAILED_JVASP-107491.cif,0.061,2.739,mBJ,2.678,-2.6046,,I4/mmm
JVASP-50837,Bi4O3F7,FAILED_JVASP-50837.cif,0.106,0.257,mBJ,0.151,-2.10021,,Pm
JVASP-13093,Mg5H2O6,FAILED_JVASP-13093.cif,4.264,6.336,mBJ,2.072,-2.54409,,P-3m1
JVASP-1261,HgF,FAILED_JVASP-1261.cif,1.83,2.373,mBJ,0.543,-1.11636,,I4/mmm
JVASP-50068,TmBiO3,FAILED_JVASP-50068.cif,2.546,3.989,mBJ,1.443,-2.59457,,R-3
JVASP-8463,InNi,FAILED_JVASP-8463.cif,0.0,0.0,mBJ,0.0,-0.07238,,Pm-3m
JVASP-106599,Sc2ZnPd,FAILED_JVASP-106599.cif,0.0,0.0,mBJ,0.0,-0.67279,,Fm-3m
JVASP-4231,USe3,FAILED_JVASP-4231.cif,0.0,0.0,mBJ,0.0,-0.97012,,P2_1/m
JVASP-28423,TeMoS,FAILED_JVASP-28423.cif,0.048,0.0,mBJ,-0.048,-0.47655,,P3m1
JVASP-7844,AlN,FAILED_JVASP-7844.cif,3.545,4.801,mBJ,1.256,-1.62907,,F-43m
JVASP-49368,Y3CuSnS7,FAILED_JVASP-49368.cif,1.485,2.066,mBJ,0.581,-1.57867,,P6_3
JVASP-7679,KHgSb,FAILED_JVASP-7679.cif,0.0,0.0,mBJ,0.0,-0.30186,,P6_3/mmc
JVASP-106772,MnZnCdTe3,FAILED_JVASP-106772.cif,0.245,1.193,mBJ,0.948,-0.28089,,Imm2
JVASP-7760,BaTiO3,FAILED_JVASP-7760.cif,1.749,2.169,mBJ,0.42,-3.35197,,P4mm
JVASP-1588,RbTlO2,FAILED_JVASP-1588.cif,0.984,1.957,mBJ,0.973,-1.16277,,R-3m
JVASP-2856,Na4CdP2,FAILED_JVASP-2856.cif,0.788,1.819,mBJ,1.031,-0.41529,,R-3m
JVASP-107219,Sr3Ca,FAILED_JVASP-107219.cif,0.0,0.02,mBJ,0.02,-0.01774,,Pm-3m
JVASP-22610,CrHgF6,FAILED_JVASP-22610.cif,0.0,0.0,mBJ,0.0,-2.0182,,R-3
JVASP-7991,ZnO,FAILED_JVASP-7991.cif,1.078,2.556,mBJ,1.478,-1.46475,,Fm-3m
JVASP-107606,K2ScAgI6,FAILED_JVASP-107606.cif,2.042,2.548,mBJ,0.506,-1.12736,,Fm-3m
JVASP-13286,NbBi3O7,FAILED_JVASP-13286.cif,1.826,2.017,mBJ,0.191,-1.71299,,P1
JVASP-15430,DySi2Ni2,FAILED_JVASP-15430.cif,0.0,0.0,mBJ,0.0,-0.81985,,I4/mmm
JVASP-8464,RbPbF3,FAILED_JVASP-8464.cif,3.499,4.625,mBJ,1.126,-2.60238,,Pm-3m
JVASP-13782,AlCl3,FAILED_JVASP-13782.cif,0.0,0.0,mBJ,0.0,-0.7388,,P-3m1
JVASP-7845,BaC2,FAILED_JVASP-7845.cif,1.791,3.094,mBJ,1.303,-0.07748,,I4/mmm
JVASP-18865,HfSbRu,FAILED_JVASP-18865.cif,0.0,0.0,mBJ,0.0,-0.50318,,F-43m
JVASP-7761,MgS,FAILED_JVASP-7761.cif,3.582,5.064,mBJ,1.482,-1.59855,,F-43m
JVASP-49375,Nd3SiAgSe7,FAILED_JVASP-49375.cif,1.507,2.109,mBJ,0.602,-1.39287,,P6_3
JVASP-7719,NaErO2,FAILED_JVASP-7719.cif,4.519,6.431,mBJ,1.912,-3.08123,,R-3m
JVASP-22630,CdI2,FAILED_JVASP-22630.cif,2.263,3.456,mBJ,1.193,-0.58124,,P-3m1
JVASP-107551,LiAu,FAILED_JVASP-107551.cif,0.0,0.0,mBJ,0.0,-0.46758,,R-3m
JVASP-50619,Li2Fe2S3,FAILED_JVASP-50619.cif,0.0,0.0,mBJ,0.0,-0.68699,,P2_1/c
JVASP-50838,Li2CrS4,FAILED_JVASP-50838.cif,0.0,0.0,mBJ,0.0,-0.8853,,C2/m
JVASP-1690,NaYS2,FAILED_JVASP-1690.cif,2.326,3.102,mBJ,0.776,-2.03782,,R-3m
JVASP-107492,YIn5Rh,FAILED_JVASP-107492.cif,0.0,0.0,mBJ,0.0,-0.42351,,P4/mmm
JVASP-3078,TiS3,FAILED_JVASP-3078.cif,0.306,3.371,mBJ,3.065,-1.09633,,P2_1/m
JVASP-7762,MgTe,FAILED_JVASP-7762.cif,2.495,3.494,mBJ,0.999,-0.95191,,F-43m
JVASP-1591,HgF2,FAILED_JVASP-1591.cif,0.862,3.43,mBJ,2.568,-1.39914,,Fm-3m
JVASP-29461,TeOF2,FAILED_JVASP-29461.cif,4.164,6.037,mBJ,1.873,-1.79768,,P2_1
JVASP-107608,K2AgSbF6,FAILED_JVASP-107608.cif,2.066,3.644,mBJ,1.578,-2.34368,,Fm-3m
JVASP-107720,Zr3Si2,FAILED_JVASP-107720.cif,0.0,0.0,mBJ,0.0,-0.85312,,P4/mbm
JVASP-49764,NaAgO2,FAILED_JVASP-49764.cif,0.668,1.178,mBJ,0.51,-0.84265,,C2/m
JVASP-8576,K2OsCl4O2,FAILED_JVASP-8576.cif,1.605,2.038,mBJ,0.433,-1.37815,,I4/mmm
JVASP-1270,K2S,FAILED_JVASP-1270.cif,2.384,4.997,mBJ,2.613,-1.22235,,Fm-3m
JVASP-15112,SrMn2Sb2,FAILED_JVASP-15112.cif,0.0,0.0,mBJ,0.0,-0.15157,,P-3m1
JVASP-107220,SrSbO3,FAILED_JVASP-107220.cif,0.0,0.0,mBJ,0.0,-2.1565,,Pm-3m
JVASP-107050,LiSbSe2,FAILED_JVASP-107050.cif,0.0,0.0,mBJ,0.0,-0.65567,,P4/mmm
JVASP-107675,Mg2AgHg,FAILED_JVASP-107675.cif,0.0,0.0,mBJ,0.0,-0.20395,,Fm-3m
JVASP-28430,CdIBr,FAILED_JVASP-28430.cif,2.055,3.556,mBJ,1.501,-0.72014,,R3m
JVASP-51369,InHO2,FAILED_JVASP-51369.cif,2.077,3.86,mBJ,1.783,-1.46629,,Pnnm
JVASP-8578,TlCl,FAILED_JVASP-8578.cif,2.208,3.114,mBJ,0.906,-1.0485,,Pm-3m
JVASP-54770,YHO2,FAILED_JVASP-54770.cif,4.368,5.991,mBJ,1.623,-2.83365,,P2_1/m
JVASP-7636,NiHg,FAILED_JVASP-7636.cif,0.0,0.0,mBJ,0.0,0.35205,,P4/mmm
JVASP-12916,Br2O,FAILED_JVASP-12916.cif,1.141,2.182,mBJ,1.041,0.13009,,Pna2_1
JVASP-50390,Er3TaO7,FAILED_JVASP-50390.cif,3.433,4.483,mBJ,1.05,-3.66796,,Cmcm
JVASP-107721,ZrUAl4,FAILED_JVASP-107721.cif,0.0,0.0,mBJ,0.0,-0.25204,,F-43m
JVASP-7952,InAgS2,FAILED_JVASP-7952.cif,0.0,0.952,mBJ,0.952,-0.42277,,R-3m
JVASP-14265,RuC,FAILED_JVASP-14265.cif,0.0,0.0,mBJ,0.0,0.61807,,P-6m2
JVASP-15388,TbSi2Ni2,FAILED_JVASP-15388.cif,0.0,0.0,mBJ,0.0,-0.8191,,I4/mmm
JVASP-107278,TlCNO,FAILED_JVASP-107278.cif,2.791,3.788,mBJ,0.997,-0.53462,,Ima2
JVASP-58905,KSiH3,FAILED_JVASP-58905.cif,2.491,3.446,mBJ,0.955,-0.19634,,Pnma
JVASP-2859,K4HgP2,FAILED_JVASP-2859.cif,1.018,2.402,mBJ,1.384,-0.41673,,R-3m
JVASP-51286,LiBBr2,FAILED_JVASP-51286.cif,0.7,1.108,mBJ,0.408,0.59706,,F-43m
JVASP-7764,Sc2O3,FAILED_JVASP-7764.cif,3.566,4.48,mBJ,0.914,-3.69576,,P-3m1
JVASP-8525,SrAl2,FAILED_JVASP-8525.cif,0.0,0.0,mBJ,0.0,-0.37263,,Imma
JVASP-13094,Mg4H2O5,FAILED_JVASP-13094.cif,4.547,5.59,HSE,1.043,-2.46571,,P-3m1
JVASP-13393,Sb5IO7,FAILED_JVASP-13393.cif,2.46,3.497,mBJ,1.037,-1.3293,,P-62c
JVASP-18611,HoPbAu,FAILED_JVASP-18611.cif,0.0,0.0,mBJ,0.0,-0.68897,,F-43m
JVASP-7803,CdTe,FAILED_JVASP-7803.cif,0.107,1.002,mBJ,0.895,-0.33712,,P3_121
JVASP-13945,Ta3SeI7,FAILED_JVASP-13945.cif,0.55,0.877,mBJ,0.327,-0.52987,,P6_3mc
JVASP-2415,CdSnP2,FAILED_JVASP-2415.cif,0.127,1.215,mBJ,1.088,-0.1031,,I-42d
JVASP-7638,KAgC2,FAILED_JVASP-7638.cif,2.42,3.144,mBJ,0.724,0.29005,,P4/mmm
JVASP-19093,CaSc2O4,FAILED_JVASP-19093.cif,3.466,4.553,mBJ,1.087,-3.67893,,Pnma
JVASP-1594,KScO2,FAILED_JVASP-1594.cif,3.678,4.9,mBJ,1.222,-3.03375,,R-3m
JVASP-107051,LiInSe2,FAILED_JVASP-107051.cif,0.0,0.0,mBJ,0.0,-0.76782,,P4/mmm
JVASP-18867,TiSbRu,FAILED_JVASP-18867.cif,0.0,0.0,mBJ,0.0,-0.41993,,F-43m
JVASP-58908,PtS2Cl8,FAILED_JVASP-58908.cif,1.8,2.353,mBJ,0.553,-0.32447,,P2_1/c
JVASP-2418,GaCuS2,FAILED_JVASP-2418.cif,0.761,1.544,mBJ,0.783,-0.64312,,I-42d
JVASP-51372,H4N2O3,FAILED_JVASP-51372.cif,3.162,4.295,mBJ,1.133,-0.49594,,P-42_1m
JVASP-4870,Yb2SeO2,FAILED_JVASP-4870.cif,0.0,0.0,mBJ,0.0,-2.362,,P-3m1
JVASP-13012,Cd3Cl2O2,FAILED_JVASP-13012.cif,1.312,2.873,mBJ,1.561,-1.16038,,P2_1/c
JVASP-8579,HgI2,FAILED_JVASP-8579.cif,1.766,2.593,mBJ,0.827,-0.15174,,Cmc2_1
JVASP-15258,HoBRh3,FAILED_JVASP-15258.cif,0.0,0.0,mBJ,0.0,-0.81209,,Pm-3m
JVASP-14308,Ta2InCuTe4,FAILED_JVASP-14308.cif,0.0,0.0,mBJ,0.0,0.33661,,I-42m
JVASP-2862,KLiSe,FAILED_JVASP-2862.cif,2.816,4.474,mBJ,1.658,-1.33483,,P4/nmm
JVASP-58167,Mg2SnIrO6,FAILED_JVASP-58167.cif,0.0,0.0,mBJ,0.0,-1.89928,,P2_1/c
JVASP-50110,LiCuTeO4,FAILED_JVASP-50110.cif,0.0,0.0,mBJ,0.0,-1.21975,,P4_322
JVASP-38281,RbYO3,FAILED_JVASP-38281.cif,0.0,0.0,mBJ,0.0,-2.118,,Pm-3m
JVASP-54722,ScHO2,FAILED_JVASP-54722.cif,4.584,5.544,mBJ,0.96,-2.77251,,Pnma
JVASP-3087,YbZn2As2,FAILED_JVASP-3087.cif,0.436,1.32,mBJ,0.884,-0.7204,,P-3m1
JVASP-7765,Y2O3,FAILED_JVASP-7765.cif,4.21,5.365,mBJ,1.155,-3.8114,,P-3m1
JVASP-15259,LuBRh3,FAILED_JVASP-15259.cif,0.0,0.0,mBJ,0.0,-0.83383,,Pm-3m
JVASP-107556,GeSb,FAILED_JVASP-107556.cif,0.0,0.0,mBJ,0.0,0.28509,,F-43m
JVASP-107723,ZrAl2Zn,FAILED_JVASP-107723.cif,0.0,0.0,mBJ,0.0,-0.49305,,P4/mmm
JVASP-13360,Li7SbO6,FAILED_JVASP-13360.cif,3.677,4.956,mBJ,1.279,-2.05144,,P1
JVASP-107624,Rb2ScAuI6,FAILED_JVASP-107624.cif,1.034,1.528,mBJ,0.494,-1.08843,,Fm-3m
JVASP-8580,TlI,FAILED_JVASP-8580.cif,2.04,2.717,mBJ,0.677,-0.66359,,Pm-3m
JVASP-7804,Se,FAILED_JVASP-7804.cif,0.898,2.289,mBJ,1.391,0.0,,P3_121
JVASP-2646,CaGeN2,FAILED_JVASP-2646.cif,2.893,4.299,mBJ,1.406,-0.78669,,I-42d
JVASP-8013,Te2Ru,FAILED_JVASP-8013.cif,0.349,0.455,mBJ,0.106,-0.28912,,Pnnm
JVASP-7889,V2CoO6,FAILED_JVASP-7889.cif,0.064,0.0,mBJ,-0.064,-2.09728,,C2/m
JVASP-2280,TlGaTe2,FAILED_JVASP-2280.cif,0.513,0.929,mBJ,0.416,-0.37,,I4/mcm
JVASP-18868,TaCoSb,FAILED_JVASP-18868.cif,0.0,1.191,mBJ,1.191,-0.10165,,F-43m
JVASP-7639,K3Sb,FAILED_JVASP-7639.cif,0.993,2.008,mBJ,1.015,-0.49995,,Fm-3m
JVASP-50497,Li4NbTe3O12,FAILED_JVASP-50497.cif,0.0,0.0,mBJ,0.0,-1.72313,,P2
JVASP-8528,NbRu3C,FAILED_JVASP-8528.cif,0.0,0.0,mBJ,0.0,-0.02075,,Pm-3m
JVASP-52288,Ba2CaI6,FAILED_JVASP-52288.cif,3.416,4.305,mBJ,0.889,-1.73367,,P-31m
JVASP-50976,LiTmO2,FAILED_JVASP-50976.cif,4.763,6.635,mBJ,1.872,-3.23039,,I4_1/amd
JVASP-2289,K2PtF6,FAILED_JVASP-2289.cif,2.555,2.82,mBJ,0.265,-2.297,,P-3m1
JVASP-14309,CdInS2,FAILED_JVASP-14309.cif,0.0,0.906,mBJ,0.906,-0.47808,,P-3m1
JVASP-51448,Nd3GaN,FAILED_JVASP-51448.cif,0.0,0.0,mBJ,0.0,0.92094,,Pm-3m
JVASP-2739,Rb2PtF6,FAILED_JVASP-2739.cif,2.612,2.713,mBJ,0.101,-2.30676,,P-3m1
JVASP-58498,YNi2O4,FAILED_JVASP-58498.cif,0.0,0.0,mBJ,0.0,-1.76348,,Fd-3m
JVASP-7805,TmMg,FAILED_JVASP-7805.cif,0.0,0.0,mBJ,0.0,-0.04427,,Pm-3m
JVASP-107052,Li2MgHg,FAILED_JVASP-107052.cif,0.0,0.0,mBJ,0.0,-0.2871,,F-43m
JVASP-2292,BaZrO3,FAILED_JVASP-2292.cif,3.25,3.841,mBJ,0.591,-3.56399,,Pm-3m
JVASP-107383,AlVF5,FAILED_JVASP-107383.cif,1.001,2.103,mBJ,1.102,-3.23268,,Immm
JVASP-8800,H4NCl,FAILED_JVASP-8800.cif,5.288,7.027,mBJ,1.739,-0.57753,,P-43m
JVASP-7766,Tb2O3,FAILED_JVASP-7766.cif,4.212,5.734,mBJ,1.522,-3.77247,,P-3m1
JVASP-2865,Ca4As2O,FAILED_JVASP-2865.cif,1.237,1.795,mBJ,0.558,-1.89181,,I4/mmm
JVASP-51747,K3ZnH5,FAILED_JVASP-51747.cif,3.863,5.772,mBJ,1.909,-0.32078,,I4/mcm
JVASP-8581,Li3Bi,FAILED_JVASP-8581.cif,0.572,0.893,mBJ,0.321,-0.57877,,Fm-3m
JVASP-14267,NaMnSe2,FAILED_JVASP-14267.cif,0.0,0.0,mBJ,0.0,-0.54533,,P3m1
JVASP-12129,ZnCl2,FAILED_JVASP-12129.cif,3.758,6.031,mBJ,2.273,-1.16439,,P4_2/nmc
JVASP-15130,TbCo3B2,FAILED_JVASP-15130.cif,0.0,0.0,mBJ,0.0,-0.50666,,P6/mmm
JVASP-60657,InTeI,FAILED_JVASP-60657.cif,1.427,2.26,mBJ,0.833,-0.4031,,P2_1/c
JVASP-2742,ThNF,FAILED_JVASP-2742.cif,2.554,3.187,mBJ,0.633,-3.0561,,R-3m
JVASP-51175,CaZrPd,FAILED_JVASP-51175.cif,0.0,0.0,mBJ,0.0,0.66791,,F-43m
JVASP-28842,Te2MoW3Se2S4,FAILED_JVASP-28842.cif,0.202,0.132,mBJ,-0.07,-0.54579,,P3m1
JVASP-107677,MnSn3,FAILED_JVASP-107677.cif,0.0,0.0,mBJ,0.0,0.3214,,I4/mmm
JVASP-51127,HfMnTl,FAILED_JVASP-51127.cif,0.0,0.0,mBJ,0.0,1.03956,,F-43m
JVASP-50070,ScTlO2,FAILED_JVASP-50070.cif,1.118,3.743,mBJ,2.625,-2.55346,,R-3m
JVASP-3090,BaHfN2,FAILED_JVASP-3090.cif,1.298,2.24,mBJ,0.942,-1.55128,,P4/nmm
JVASP-7682,Rb2PdC2,FAILED_JVASP-7682.cif,1.82,2.372,mBJ,0.552,-0.06265,,P-3m1
JVASP-107328,KBiS2,FAILED_JVASP-107328.cif,0.0,0.181,mBJ,0.181,-0.70309,,P4/mmm
JVASP-7640,KZnSb,FAILED_JVASP-7640.cif,0.269,1.224,mBJ,0.955,-0.45403,,P-6m2
JVASP-7806,Tl,FAILED_JVASP-7806.cif,0.0,0.816,mBJ,0.816,0.019,,I4/mmm
JVASP-50250,LiSbO2,FAILED_JVASP-50250.cif,2.259,2.245,mBJ,-0.014,-1.72962,,C2/c
JVASP-13017,GaCuCl4,FAILED_JVASP-13017.cif,1.885,2.189,mBJ,0.304,-0.91653,,P-42c
JVASP-50116,NdAsO4,FAILED_JVASP-50116.cif,3.947,5.621,mBJ,1.674,-2.468,,I4_1/amd
JVASP-29325,YCl,FAILED_JVASP-29325.cif,0.0,0.0,mBJ,0.0,-1.53641,,R-3m
JVASP-8582,CuBr,FAILED_JVASP-8582.cif,0.535,1.137,mBJ,0.602,-0.24072,,P6_3/mmc
JVASP-31799,RuF6,FAILED_JVASP-31799.cif,0.0,0.61,mBJ,0.61,-1.60076,,Im-3m
JVASP-48548,Li3VO3F2,FAILED_JVASP-48548.cif,2.488,2.585,mBJ,0.097,-2.70479,,P1
JVASP-14311,Fe4P,FAILED_JVASP-14311.cif,0.0,0.0,mBJ,0.0,0.46811,,Pm-3m
JVASP-7767,Dy2O3,FAILED_JVASP-7767.cif,4.277,5.821,mBJ,1.544,-3.79526,,P-3m1
JVASP-2868,RbNaS,FAILED_JVASP-2868.cif,2.544,4.573,mBJ,2.029,-1.23668,,P4/nmm
JVASP-43920,BaYF5,FAILED_JVASP-43920.cif,6.696,7.696,mBJ,1.0,-4.2491,,P4/mmm
JVASP-1273,MgTe,FAILED_JVASP-1273.cif,2.53,4.048,mBJ,1.518,-0.95091,,P6_3mc
JVASP-32555,BH9C3O3,FAILED_JVASP-32555.cif,6.105,8.894,mBJ,2.789,-0.63379,,P6_3/m
JVASP-8801,HoTaO4,FAILED_JVASP-8801.cif,2.498,3.728,mBJ,1.23,-3.31344,,P-4m2
JVASP-7846,TlSe,FAILED_JVASP-7846.cif,0.256,0.744,mBJ,0.488,-0.27993,,I4/mcm
JVASP-8583,AgBr,FAILED_JVASP-8583.cif,0.792,2.516,mBJ,1.724,-0.34729,,Fm-3m
JVASP-51211,NbCrW,FAILED_JVASP-51211.cif,0.0,0.0,mBJ,0.0,0.77885,,F-43m
JVASP-13361,Nd5AgS8,FAILED_JVASP-13361.cif,1.598,1.983,mBJ,0.385,-1.99986,,I-4
JVASP-107330,InSn3Se4,FAILED_JVASP-107330.cif,0.0,0.0,mBJ,0.0,-0.48458,,P4/mmm
JVASP-13095,Mg3H2O4,FAILED_JVASP-13095.cif,4.25,5.36,HSE,1.11,-2.34471,,P-3m1
JVASP-7807,YB2,FAILED_JVASP-7807.cif,0.0,0.0,mBJ,0.0,-0.63502,,P6/mmm
JVASP-50117,LuAlO3,FAILED_JVASP-50117.cif,4.035,5.657,mBJ,1.622,-3.61019,,P6_3/mmc
JVASP-22576,MgCrF6,FAILED_JVASP-22576.cif,0.0,0.244,mBJ,0.244,-2.90924,,R-3
JVASP-7683,HoSF,FAILED_JVASP-7683.cif,1.39,2.529,mBJ,1.139,-3.22478,,P4/nmm
JVASP-41608,VSiOs2,FAILED_JVASP-41608.cif,0.0,0.0,mBJ,0.0,-0.28081,,Fm-3m
JVASP-22611,SiO2,FAILED_JVASP-22611.cif,5.543,8.506,mBJ,2.963,-2.86855,,P6_322
JVASP-18692,DyGa,FAILED_JVASP-18692.cif,0.0,0.0,mBJ,0.0,-0.63775,,Cmcm
JVASP-49616,ZnFeO3,FAILED_JVASP-49616.cif,0.0,0.0,mBJ,0.0,-1.38324,,Pnma
JVASP-51325,KCaNi2,FAILED_JVASP-51325.cif,0.0,0.0,mBJ,0.0,0.47034,,Fm-3m
JVASP-107331,In2AsSe,FAILED_JVASP-107331.cif,0.0,0.0,mBJ,0.0,-0.23953,,P-4m2
JVASP-2871,Ca2ZnN2,FAILED_JVASP-2871.cif,0.841,1.654,mBJ,0.813,-0.91439,,I4/mmm
JVASP-50739,LiAgF3,FAILED_JVASP-50739.cif,0.0,0.0,mBJ,0.0,-1.93898,,R3c
JVASP-7768,Ho2O3,FAILED_JVASP-7768.cif,4.342,5.886,mBJ,1.544,-3.81581,,P-3m1
JVASP-18728,PaIr3,FAILED_JVASP-18728.cif,0.0,0.0,mBJ,0.0,-0.89917,,Pm-3m
JVASP-1609,NaRhO2,FAILED_JVASP-1609.cif,1.317,1.483,mBJ,0.166,-1.33331,,R-3m
JVASP-29463,Si3Bi2O9,FAILED_JVASP-29463.cif,3.487,5.259,mBJ,1.772,-2.38806,,P6_3/m
JVASP-107332,K2NbO3F,FAILED_JVASP-107332.cif,1.631,2.398,mBJ,0.767,-2.753,,I4mm
JVASP-8015,VPt3,FAILED_JVASP-8015.cif,0.0,0.0,mBJ,0.0,-0.44537,,I4/mmm
JVASP-8802,H4IN,FAILED_JVASP-8802.cif,3.843,5.319,mBJ,1.476,-0.39004,,Imm2
JVASP-2880,Rb2HgF4,FAILED_JVASP-2880.cif,1.806,4.029,mBJ,2.223,-2.26991,,I4/mmm
JVASP-8136,Na2UO4,FAILED_JVASP-8136.cif,2.166,2.193,mBJ,0.027,-2.73773,,I4/mmm
JVASP-12882,Rb3Sb2Br9,FAILED_JVASP-12882.cif,1.878,2.283,mBJ,0.405,-1.19589,,P-3m1
JVASP-8005,SiOs,FAILED_JVASP-8005.cif,0.503,0.549,mBJ,0.046,-0.26477,,P2_13
JVASP-52242,Li6CuF8,FAILED_JVASP-52242.cif,0.0,0.0,mBJ,0.0,-2.80349,,Fm-3m
JVASP-32398,B4CCl6O,FAILED_JVASP-32398.cif,4.06,5.284,mBJ,1.224,-0.69274,,R3m
JVASP-15344,NaZnSb,FAILED_JVASP-15344.cif,0.0,0.131,mBJ,0.131,-0.33637,,P4/nmm
JVASP-56688,Ag6Mo2ClO7F3,FAILED_JVASP-56688.cif,1.655,2.5,mBJ,0.845,-1.35036,,P3m1
JVASP-8759,CuI,FAILED_JVASP-8759.cif,1.253,2.138,mBJ,0.885,-0.1509,,R3m
JVASP-8030,Sm4S3N2,FAILED_JVASP-8030.cif,1.302,1.948,mBJ,0.646,-2.0329,,C2/m
JVASP-7684,ErSF,FAILED_JVASP-7684.cif,1.421,2.387,mBJ,0.966,-3.21604,,P4/nmm
JVASP-49766,CdSnO3,FAILED_JVASP-49766.cif,1.134,2.861,mBJ,1.727,-1.56356,,R-3
JVASP-18613,LuInAu2,FAILED_JVASP-18613.cif,0.0,0.0,mBJ,0.0,-0.71666,,Fm-3m
JVASP-7849,LaMnSbO,FAILED_JVASP-7849.cif,0.0,0.0,mBJ,0.0,-1.71786,,P4/nmm
JVASP-50742,YbAlO3,FAILED_JVASP-50742.cif,0.0,0.0,mBJ,0.0,-2.9511,,P6_3/mmc
JVASP-2649,BaP3,FAILED_JVASP-2649.cif,0.594,1.022,mBJ,0.428,-0.75549,,C2/m
JVASP-18815,YbBiAu,FAILED_JVASP-18815.cif,0.0,0.0,mBJ,0.0,-0.35437,,F-43m
JVASP-4762,YbSmSe3,FAILED_JVASP-4762.cif,0.0,0.0,mBJ,0.0,-1.72425,,Cmcm
JVASP-7769,Er2O3,FAILED_JVASP-7769.cif,4.423,5.987,mBJ,1.564,-3.83765,,P-3m1
JVASP-19094,Na2GeS3,FAILED_JVASP-19094.cif,2.377,3.765,mBJ,1.388,-0.93489,,P2_1/c
JVASP-4044,KAuSe2,FAILED_JVASP-4044.cif,0.859,1.605,mBJ,0.746,-0.62453,,P4/mbm
JVASP-13751,NdAl4,FAILED_JVASP-13751.cif,0.0,0.0,mBJ,0.0,-0.34457,,I4/mmm
JVASP-13018,Li5SbO5,FAILED_JVASP-13018.cif,3.123,4.391,mBJ,1.268,-2.05002,,C2/m
JVASP-18693,DyInPd2,FAILED_JVASP-18693.cif,0.0,0.0,mBJ,0.0,-0.83334,,Fm-3m
JVASP-8803,AgPF6,FAILED_JVASP-8803.cif,3.047,5.169,mBJ,2.122,-2.19843,,Fm-3m
JVASP-8586,KCl,FAILED_JVASP-8586.cif,5.348,8.516,mBJ,3.168,-2.05257,,Pm-3m
JVASP-8651,K2PtBr4,FAILED_JVASP-8651.cif,1.606,2.004,mBJ,0.398,-1.17414,,P4/mmm
JVASP-50622,Rb3ErO3,FAILED_JVASP-50622.cif,2.19,4.594,mBJ,2.404,-2.15105,,C2/m
JVASP-8723,YHg2,FAILED_JVASP-8723.cif,0.0,0.0,mBJ,0.0,-0.25677,,P6/mmm
JVASP-13096,Mg3H4O5,FAILED_JVASP-13096.cif,4.096,6.233,mBJ,2.137,-2.02479,,P-3m1
JVASP-8028,YCuO2,FAILED_JVASP-8028.cif,2.844,2.872,mBJ,0.028,-2.60636,,P6_3/mmc
JVASP-51456,TiPd3,FAILED_JVASP-51456.cif,0.0,0.0,mBJ,0.0,-0.6387,,Pm-3m
JVASP-8137,Ba2ZnF6,FAILED_JVASP-8137.cif,5.041,7.038,mBJ,1.997,-3.53736,,I4/mmm
JVASP-8180,HoN,FAILED_JVASP-8180.cif,0.192,1.143,mBJ,0.951,-1.97059,,Fm-3m
JVASP-8273,CaCu2N2,FAILED_JVASP-8273.cif,0.0,0.0,mBJ,0.0,0.11897,,P-4m2
JVASP-7770,Tm2O3,FAILED_JVASP-7770.cif,4.491,6.132,mBJ,1.641,-3.86446,,P-3m1
JVASP-8053,NaTaO3,FAILED_JVASP-8053.cif,2.332,3.645,mBJ,1.313,-2.84105,,Pm-3m
JVASP-14269,YbSi,FAILED_JVASP-14269.cif,0.0,0.0,mBJ,0.0,-0.59135,,Cmcm
JVASP-7771,Lu2O3,FAILED_JVASP-7771.cif,4.458,6.331,mBJ,1.873,-3.88934,,P-3m1
JVASP-38321,RbFe2As2,FAILED_JVASP-38321.cif,0.0,0.0,mBJ,0.0,-0.33522,,I4/mmm
JVASP-56623,BaVClO3,FAILED_JVASP-56623.cif,1.93,2.562,mBJ,0.632,-2.77774,,Pnma
JVASP-52863,RbBe2F5,FAILED_JVASP-52863.cif,7.609,11.133,mBJ,3.524,-3.37905,,C2
JVASP-8682,AuCN,FAILED_JVASP-8682.cif,1.363,2.027,mBJ,0.664,0.34585,,P6mm
JVASP-18653,SrCd,FAILED_JVASP-18653.cif,0.0,0.0,mBJ,0.0,-0.41149,,Pm-3m
JVASP-8181,Na3As,FAILED_JVASP-8181.cif,0.32,1.501,mBJ,1.181,-0.45104,,Fm-3m
JVASP-49910,Li3Nb3TeO12,FAILED_JVASP-49910.cif,2.261,2.734,mBJ,0.473,-2.32011,,P1
JVASP-13364,Li5NCl2,FAILED_JVASP-13364.cif,2.327,2.829,mBJ,0.502,-1.21979,,P2/m
JVASP-8804,Ag3AuS2,FAILED_JVASP-8804.cif,1.702,2.156,mBJ,0.454,-0.03916,,R-3m
JVASP-13103,Sr2SnS4,FAILED_JVASP-13103.cif,2.444,3.568,mBJ,1.124,-1.53996,,Ama2
JVASP-38639,Ni3Au,FAILED_JVASP-38639.cif,0.0,0.0,mBJ,0.0,0.08839,,I4/mmm