material_id,formula,cif_path,pbe_bandgap,hse_bandgap,gap_type,correction,formation_energy,total_energy,spacegroup
JVASP-71659,BeCo2Hg,FAILED_JVASP-71659.cif,0.0,0.0,mBJ,0.0,0.45666,,I4/mmm
JVASP-85709,BaBiO3,FAILED_JVASP-85709.cif,0.963,1.759,mBJ,0.796,-1.46224,,P1
JVASP-106042,LiBi3I2O4,FAILED_JVASP-106042.cif,2.0,2.002,mBJ,0.002,-1.34085,,Amm2
JVASP-70862,Ti2BeGa,FAILED_JVASP-70862.cif,0.0,0.0,mBJ,0.0,-0.07704,,P4mm
JVASP-71603,BeVFe2,FAILED_JVASP-71603.cif,0.0,0.0,mBJ,0.0,-0.13368,,I-4m2
JVASP-70410,MnBe2Pt,FAILED_JVASP-70410.cif,0.0,0.0,mBJ,0.0,-0.24551,,P4mm
JVASP-91475,KPO2F2,FAILED_JVASP-91475.cif,5.633,8.464,mBJ,2.831,-2.58755,,Pnma
JVASP-105824,MnAl2Tc,FAILED_JVASP-105824.cif,0.0,0.0,mBJ,0.0,-0.26269,,Fm-3m
JVASP-70079,YBeIn,FAILED_JVASP-70079.cif,0.0,0.0,mBJ,0.0,-0.25863,,P-6m2
JVASP-53094,Cd3AsI3,FAILED_JVASP-53094.cif,0.854,1.969,mBJ,1.115,-0.40556,,Pm
JVASP-63889,Ba2TiHg,FAILED_JVASP-63889.cif,0.0,0.0,mBJ,0.0,0.40261,,Fm-3m
JVASP-70752,BeMoRh2,FAILED_JVASP-70752.cif,0.0,0.0,mBJ,0.0,-0.22047,,P4mm
JVASP-18744,MgPt3,FAILED_JVASP-18744.cif,0.0,0.0,mBJ,0.0,-0.61834,,Pm-3m
JVASP-69857,TaBeSi,FAILED_JVASP-69857.cif,0.0,0.0,mBJ,0.0,0.29832,,P3m1
JVASP-71778,MnBeFe2,FAILED_JVASP-71778.cif,0.0,0.0,mBJ,0.0,-0.01983,,I4/mmm
JVASP-71525,HfBeOs,FAILED_JVASP-71525.cif,0.0,0.0,mBJ,0.0,0.01714,,P3m1
JVASP-43089,LiFe3Sn2S8,FAILED_JVASP-43089.cif,0.0,0.0,mBJ,0.0,-0.54747,,Imm2
JVASP-71986,BeFeBr2,FAILED_JVASP-71986.cif,0.0,0.0,mBJ,0.0,0.52274,,I-4m2
JVASP-74304,SrBeBr2,FAILED_JVASP-74304.cif,0.912,1.375,mBJ,0.463,-0.80384,,Fm-3m
JVASP-71451,BeInP,FAILED_JVASP-71451.cif,0.0,0.0,mBJ,0.0,-0.12999,,P-6m2
JVASP-70155,Be2VTe,FAILED_JVASP-70155.cif,0.0,0.0,mBJ,0.0,0.35866,,I-4m2
JVASP-70620,MnBe2Tc,FAILED_JVASP-70620.cif,0.0,0.0,mBJ,0.0,-0.13974,,F-43m
JVASP-69525,ScBe2Re,FAILED_JVASP-69525.cif,0.0,0.0,mBJ,0.0,0.07834,,I-4m2
JVASP-70969,Na4SrBe,FAILED_JVASP-70969.cif,0.0,0.0,mBJ,0.0,0.41123,,F-43m
JVASP-71827,ScBeCo2,FAILED_JVASP-71827.cif,0.0,0.0,mBJ,0.0,-0.11422,,I-4m2
JVASP-19817,SmN,FAILED_JVASP-19817.cif,0.0,0.861,mBJ,0.861,-1.69912,,Fm-3m
JVASP-71569,TiBe2V,FAILED_JVASP-71569.cif,0.0,0.0,mBJ,0.0,-0.03717,,P4/mmm
JVASP-56277,VSe,FAILED_JVASP-56277.cif,0.0,0.0,mBJ,0.0,-0.23519,,P6_3/mmc
JVASP-71078,BeTc2Hg,FAILED_JVASP-71078.cif,0.0,0.0,mBJ,0.0,0.21441,,P4mm
JVASP-92261,FeCu2GeS4,FAILED_JVASP-92261.cif,0.0,0.0,mBJ,0.0,-0.38463,,I-42m
JVASP-70258,Be2CdOs,FAILED_JVASP-70258.cif,0.0,0.0,mBJ,0.0,0.25491,,I-4m2
JVASP-106043,LiIn2CuTe4,FAILED_JVASP-106043.cif,0.57,1.322,mBJ,0.752,-0.43689,,I-4
JVASP-71486,BeHgMo,FAILED_JVASP-71486.cif,0.0,0.0,mBJ,0.0,0.68104,,P3m1
JVASP-14803,TiTe,FAILED_JVASP-14803.cif,0.0,0.0,mBJ,0.0,-0.36794,,P6_3/mmc
JVASP-71724,BeFe2Ni,FAILED_JVASP-71724.cif,0.0,0.0,mBJ,0.0,-0.0734,,I4/mmm
JVASP-63893,Ba4HfP,FAILED_JVASP-63893.cif,0.0,0.0,mBJ,0.0,0.80345,,F-43m
JVASP-1321,BeSe,FAILED_JVASP-1321.cif,2.848,3.885,mBJ,1.037,-0.89097,,F-43m
JVASP-85784,TiH8N2F6,FAILED_JVASP-85784.cif,4.681,4.757,mBJ,0.076,-1.70327,,P-3m1
JVASP-70326,Be2MoPb,FAILED_JVASP-70326.cif,0.0,0.0,mBJ,0.0,0.71557,,I4/mmm
JVASP-106123,CaBeSi,FAILED_JVASP-106123.cif,0.0,0.0,mBJ,0.0,-0.40433,,P-6m2
JVASP-71527,BeCuHg2,FAILED_JVASP-71527.cif,0.0,0.0,mBJ,0.0,0.40283,,P4mm
JVASP-69787,MnBe2Tl,FAILED_JVASP-69787.cif,0.0,0.0,mBJ,0.0,0.41172,,P4/mmm
JVASP-70897,KBe2Cd,FAILED_JVASP-70897.cif,0.0,0.0,mBJ,0.0,0.96036,,Cmmm
JVASP-70546,Be2CuMo,FAILED_JVASP-70546.cif,0.0,0.0,mBJ,0.0,0.24727,,I-4m2
JVASP-71883,Li2BeSi,FAILED_JVASP-71883.cif,0.0,0.0,mBJ,0.0,0.01065,,I4/mmm
JVASP-87186,TmFeO3,FAILED_JVASP-87186.cif,0.0,0.0,mBJ,0.0,-2.67336,,Pnma
JVASP-71725,YBeBr,FAILED_JVASP-71725.cif,0.168,0.334,mBJ,0.166,-0.25093,,P3m1
JVASP-43819,Mn2OF3,FAILED_JVASP-43819.cif,0.0,0.0,mBJ,0.0,-2.25079,,Amm2
JVASP-44621,Li5Mn3Nb2O10,FAILED_JVASP-44621.cif,0.0,0.0,mBJ,0.0,-2.16312,,P-1
JVASP-70082,KYBe2,FAILED_JVASP-70082.cif,0.174,0.127,mBJ,-0.047,0.76031,,F-43m
JVASP-71780,BeGa2Mo,FAILED_JVASP-71780.cif,0.0,0.0,mBJ,0.0,-0.09521,,I4/mmm
JVASP-70013,Be2CdTc,FAILED_JVASP-70013.cif,0.0,0.0,mBJ,0.0,0.31073,,I-4m2
JVASP-105691,K2RbPrF6,FAILED_JVASP-105691.cif,5.26,9.442,mBJ,4.182,-3.27478,,Fm-3m
JVASP-70753,SrBeV2,FAILED_JVASP-70753.cif,0.0,0.0,mBJ,0.0,0.44373,,P4mm
JVASP-71941,ScBeNi2,FAILED_JVASP-71941.cif,0.0,0.0,mBJ,0.0,-0.3346,,I-4m2
JVASP-70621,HfBe2Fe,FAILED_JVASP-70621.cif,0.0,0.0,mBJ,0.0,0.05276,,P4mm
JVASP-74260,Be2CrTc,FAILED_JVASP-74260.cif,0.0,0.0,mBJ,0.0,0.04731,,P4mm
JVASP-95038,Sr2BBrN2,FAILED_JVASP-95038.cif,2.598,4.178,mBJ,1.58,-1.57925,,R-3m
JVASP-14969,TiRh,FAILED_JVASP-14969.cif,0.0,0.0,mBJ,0.0,-0.75048,,P4/mmm
JVASP-15987,HfSiS,FAILED_JVASP-15987.cif,0.0,0.0,mBJ,0.0,-1.19299,,P4/nmm
JVASP-70415,Be2CuHg,FAILED_JVASP-70415.cif,0.0,0.0,mBJ,0.0,0.40676,,I-4m2
JVASP-14637,PuC,FAILED_JVASP-14637.cif,0.0,0.0,mBJ,0.0,-0.24227,,Fm-3m
JVASP-71828,TiBeSe2,FAILED_JVASP-71828.cif,0.0,0.0,mBJ,0.0,-0.21551,,I-4m2
JVASP-69864,Be2VRh,FAILED_JVASP-69864.cif,0.372,0.297,mBJ,-0.075,-0.28591,,F-43m
JVASP-70164,LiTiBe2,FAILED_JVASP-70164.cif,0.0,0.082,mBJ,0.082,0.10844,,F-43m
JVASP-32309,TaTeBr9,FAILED_JVASP-32309.cif,1.949,2.441,mBJ,0.492,-0.67292,,P2_1/m
JVASP-71414,Be2FeCl,FAILED_JVASP-71414.cif,0.0,0.0,mBJ,0.0,0.13316,,P4/mmm
JVASP-74176,BeCuMo,FAILED_JVASP-74176.cif,0.0,0.0,mBJ,0.0,0.26972,,P3m1
JVASP-15743,ErSi2Pt2,FAILED_JVASP-15743.cif,0.0,0.0,mBJ,0.0,-0.94615,,I4/mmm
JVASP-18408,CrH,FAILED_JVASP-18408.cif,0.0,0.0,mBJ,0.0,0.20287,,P6_3mc
JVASP-71013,Mg2BeFe,FAILED_JVASP-71013.cif,0.0,0.0,mBJ,0.0,0.1089,,P4mm
JVASP-16144,ThCr2B6,FAILED_JVASP-16144.cif,0.0,0.0,mBJ,0.0,-0.57697,,Immm
JVASP-70707,Be2CrP,FAILED_JVASP-70707.cif,0.0,0.0,mBJ,0.0,-0.16626,,I-4m2
JVASP-74216,BeCo4Pt,FAILED_JVASP-74216.cif,0.0,0.0,mBJ,0.0,0.14936,,F-43m
JVASP-5188,PbIF,FAILED_JVASP-5188.cif,2.013,3.016,mBJ,1.003,-1.59793,,P4/nmm
JVASP-85710,Li2H2Pd,FAILED_JVASP-85710.cif,0.0,0.0,mBJ,0.0,-0.46912,,I4/mmm
JVASP-71988,BeTlFe2,FAILED_JVASP-71988.cif,0.0,0.0,mBJ,0.0,0.48092,,I4/mmm
JVASP-71080,BeZn2Ru,FAILED_JVASP-71080.cif,0.0,0.0,mBJ,0.0,-0.05323,,P4mm
JVASP-72054,BeNi2W,FAILED_JVASP-72054.cif,0.0,0.0,mBJ,0.0,-0.11346,,F-43m
JVASP-71220,Mn2BeIr,FAILED_JVASP-71220.cif,0.0,0.0,mBJ,0.0,-0.20132,,P4mm
JVASP-72331,TiBeCo2,FAILED_JVASP-72331.cif,0.0,0.0,mBJ,0.0,-0.45852,,Fm-3m
JVASP-70015,Be2TlNi,FAILED_JVASP-70015.cif,0.0,0.0,mBJ,0.0,0.22052,,P4/mmm
JVASP-70473,Be2CoBr,FAILED_JVASP-70473.cif,0.0,0.0,mBJ,0.0,0.74532,,I-4m2
JVASP-50362,BaNa4O3,FAILED_JVASP-50362.cif,1.823,4.248,mBJ,2.425,-1.65869,,Cc
JVASP-42291,Co3OF5,FAILED_JVASP-42291.cif,0.0,0.0,mBJ,0.0,-1.65783,,P2_1
JVASP-71781,BeCo2Te,FAILED_JVASP-71781.cif,0.0,0.0,mBJ,0.0,0.2902,,I-4m2
JVASP-69629,Be2NbPb,FAILED_JVASP-69629.cif,0.0,0.0,mBJ,0.0,0.33165,,I-4m2
JVASP-71943,Li2MnBe,FAILED_JVASP-71943.cif,0.0,0.0,mBJ,0.0,0.4035,,I4/mmm
JVASP-50879,Li3CrS4,FAILED_JVASP-50879.cif,0.0,1.801,mBJ,1.801,-1.00522,,P-43m
JVASP-15679,YbNi2B2C,FAILED_JVASP-15679.cif,0.0,0.0,mBJ,0.0,-0.52174,,I4/mmm
JVASP-71607,MgBeCu2,FAILED_JVASP-71607.cif,0.0,0.0,mBJ,0.0,0.03668,,I-4m2
JVASP-18467,K2MoCl6,FAILED_JVASP-18467.cif,0.0,0.0,mBJ,0.0,-1.49096,,Fm-3m
JVASP-71727,BeSiIr2,FAILED_JVASP-71727.cif,0.0,0.0,mBJ,0.0,-0.20579,,I-4m2
JVASP-70972,Ti2BeMo,FAILED_JVASP-70972.cif,0.0,0.0,mBJ,0.0,-0.0005,,P4mm
JVASP-5839,AlSiTe3,FAILED_JVASP-5839.cif,1.206,1.742,mBJ,0.536,-0.27184,,P-31m
JVASP-69715,MgBe2V,FAILED_JVASP-69715.cif,0.0,0.0,mBJ,0.0,0.31471,,Fm-3m
JVASP-71221,BeBiPt,FAILED_JVASP-71221.cif,0.0,0.0,mBJ,0.0,-0.17179,,P-6m2
JVASP-71014,Sc2BeRh,FAILED_JVASP-71014.cif,0.0,0.0,mBJ,0.0,-0.41032,,P4mm
JVASP-70264,NaBe2Tc,FAILED_JVASP-70264.cif,0.0,0.0,mBJ,0.0,0.67983,,I-4m2
JVASP-74384,K2BeTl,FAILED_JVASP-74384.cif,0.0,0.0,mBJ,0.0,0.41231,,F-43m
JVASP-74218,Be2RuW,FAILED_JVASP-74218.cif,0.0,0.0,mBJ,0.0,-0.14877,,F-43m
JVASP-85547,CaUO4,FAILED_JVASP-85547.cif,2.323,2.308,mBJ,-0.015,-3.49558,,R-3m
JVASP-15397,MnCo2Si,FAILED_JVASP-15397.cif,0.0,0.0,mBJ,0.0,-0.34799,,Fm-3m
JVASP-70170,Be2FeIr,FAILED_JVASP-70170.cif,0.0,0.0,mBJ,0.0,-0.20434,,I-4m2
JVASP-70418,Be2NbOs,FAILED_JVASP-70418.cif,0.0,0.0,mBJ,0.0,0.01785,,P4mm
JVASP-3696,BaLiH3,FAILED_JVASP-3696.cif,2.444,3.537,mBJ,1.093,-0.6177,,Pm-3m
JVASP-71346,MgBe2Ni,FAILED_JVASP-71346.cif,0.0,0.0,mBJ,0.0,-0.05996,,P4mm
JVASP-70756,Ta2BeRu,FAILED_JVASP-70756.cif,0.0,0.0,mBJ,0.0,-0.16667,,P4mm
JVASP-60637,V2O5,FAILED_JVASP-60637.cif,1.843,2.259,mBJ,0.416,-2.38061,,Pnma
JVASP-70265,Be2FeIr,FAILED_JVASP-70265.cif,0.0,0.0,mBJ,0.0,-0.35216,,P4/mmm
JVASP-71015,Be2PdW,FAILED_JVASP-71015.cif,0.0,0.0,mBJ,0.0,-0.17691,,P4/mmm
JVASP-70627,NaBeHg,FAILED_JVASP-70627.cif,0.0,0.0,mBJ,0.0,0.2952,,P-6m2
JVASP-74178,Be2NiPb,FAILED_JVASP-74178.cif,0.0,0.0,mBJ,0.0,0.48762,,I-4m2
JVASP-2151,UF5,FAILED_JVASP-2151.cif,0.845,4.045,mBJ,3.2,-3.62056,,I4/m
JVASP-70474,ZrTaBe2,FAILED_JVASP-70474.cif,0.0,0.0,mBJ,0.0,0.03322,,I4/mmm
JVASP-70900,Mn2BeHg,FAILED_JVASP-70900.cif,0.0,0.0,mBJ,0.0,0.31445,,P4mm
JVASP-71782,TiBeFe2,FAILED_JVASP-71782.cif,0.0,0.0,mBJ,0.0,-0.23141,,Fm-3m
JVASP-74262,Be2CrCu,FAILED_JVASP-74262.cif,0.0,0.0,mBJ,0.0,0.20046,,F-43m
JVASP-69534,Be2NbOs,FAILED_JVASP-69534.cif,0.0,0.0,mBJ,0.0,0.01836,,P4mm
JVASP-69630,MnBeP,FAILED_JVASP-69630.cif,0.0,0.0,mBJ,0.0,0.10787,,P3m1
JVASP-71195,MgBeRe2,FAILED_JVASP-71195.cif,0.0,0.0,mBJ,0.0,0.04465,,P4mm
JVASP-15785,CrP2,FAILED_JVASP-15785.cif,0.0,0.0,mBJ,0.0,-0.39428,,C2/m
JVASP-63903,Ba4HfSb,FAILED_JVASP-63903.cif,0.0,0.0,mBJ,0.0,0.55983,,F-43m
JVASP-18443,NbPS,FAILED_JVASP-18443.cif,0.0,0.0,mBJ,0.0,-0.87584,,Immm
JVASP-71831,TiBeRh2,FAILED_JVASP-71831.cif,0.0,0.0,mBJ,0.0,-0.60985,,I-4m2
JVASP-70172,BeTcRh,FAILED_JVASP-70172.cif,0.0,0.0,mBJ,0.0,-0.02208,,P3m1
JVASP-70105,TaBe2Fe,FAILED_JVASP-70105.cif,0.0,0.0,mBJ,0.0,0.01281,,P4/mmm
JVASP-71223,HfMgBe2,FAILED_JVASP-71223.cif,0.0,0.0,mBJ,0.0,0.08546,,P4/mmm
JVASP-18583,TiAgHg2,FAILED_JVASP-18583.cif,0.0,0.0,mBJ,0.0,0.23424,,P4/mmm
JVASP-53976,CO2,FAILED_JVASP-53976.cif,6.713,9.3,mBJ,2.587,-1.30661,,P4_2/mnm
JVASP-22601,Rb2MnF6,FAILED_JVASP-22601.cif,0.0,0.0,mBJ,0.0,-2.6487,,Fm-3m
JVASP-95186,CuSbPbS3,FAILED_JVASP-95186.cif,0.691,1.044,mBJ,0.353,-0.41574,,Pmn2_1
JVASP-42876,AcH3,FAILED_JVASP-42876.cif,0.925,1.722,mBJ,0.797,-0.62979,,Fm-3m
JVASP-71609,BeGa2Ru,FAILED_JVASP-71609.cif,0.0,0.0,mBJ,0.0,-0.10061,,I4/mmm
JVASP-70901,BeCdIr2,FAILED_JVASP-70901.cif,0.0,0.0,mBJ,0.0,-0.01348,,P4mm
JVASP-74434,ZrBe2Cu,FAILED_JVASP-74434.cif,0.0,0.0,mBJ,0.0,-0.02672,,F-43m
JVASP-74312,HfBe2Ni,FAILED_JVASP-74312.cif,0.0,0.0,mBJ,0.0,-0.12863,,P4mm
JVASP-15192,TaAlCo2,FAILED_JVASP-15192.cif,0.0,0.0,mBJ,0.0,-0.46922,,Fm-3m
JVASP-70976,MgTa2Be,FAILED_JVASP-70976.cif,0.0,0.0,mBJ,0.0,0.1874,,P4mm
JVASP-70868,MgBeSe2,FAILED_JVASP-70868.cif,0.566,1.604,mBJ,1.038,-0.79993,,P4mm
JVASP-70938,NaBePd2,FAILED_JVASP-70938.cif,0.0,0.0,mBJ,0.0,-0.16627,,P4mm
JVASP-14638,YbCo2,FAILED_JVASP-14638.cif,0.0,0.0,mBJ,0.0,-0.16505,,Fd-3m
JVASP-70757,NaZr2Be,FAILED_JVASP-70757.cif,0.0,0.0,mBJ,0.0,0.29479,,P4mm
JVASP-74180,BeTlIn,FAILED_JVASP-74180.cif,0.0,0.0,mBJ,0.0,0.45458,,P3m1
JVASP-44017,Fe6O7F5,FAILED_JVASP-44017.cif,0.0,0.0,mBJ,0.0,-1.65558,,P1
JVASP-71349,BeNbPb2,FAILED_JVASP-71349.cif,0.0,0.0,mBJ,0.0,0.33307,,P4mm
JVASP-15083,US2,FAILED_JVASP-15083.cif,0.0,0.0,mBJ,0.0,-1.55586,,P-62m
JVASP-71990,MnBeFe2,FAILED_JVASP-71990.cif,0.0,0.0,mBJ,0.0,-0.00521,,I-4m2
JVASP-71729,BeCr2Se,FAILED_JVASP-71729.cif,0.0,0.0,mBJ,0.0,0.38553,,I-4m2
JVASP-69632,Be2PdRh,FAILED_JVASP-69632.cif,0.0,0.0,mBJ,0.0,-0.4213,,P4mm
JVASP-70273,NaHfBe,FAILED_JVASP-70273.cif,0.0,0.0,mBJ,0.0,0.57345,,P3m1
JVASP-71153,Ca4BeNb,FAILED_JVASP-71153.cif,0.0,0.0,mBJ,0.0,1.05574,,F-43m
JVASP-74357,Be2NbSi,FAILED_JVASP-74357.cif,0.0,0.0,mBJ,0.0,-0.15285,,I-4m2
JVASP-71784,ScBeCr2,FAILED_JVASP-71784.cif,0.0,0.0,mBJ,0.0,0.35487,,I4/mmm
JVASP-70106,NaBe2Cl,FAILED_JVASP-70106.cif,0.0,0.0,mBJ,0.0,0.53428,,I-4m2
JVASP-74264,ScBe2Te,FAILED_JVASP-74264.cif,0.0,0.0,mBJ,0.0,0.18454,,P4/mmm
JVASP-70840,HfBeSi2,FAILED_JVASP-70840.cif,0.0,0.0,mBJ,0.0,0.28676,,P4mm
JVASP-71494,TiBe2Pb,FAILED_JVASP-71494.cif,0.0,0.0,mBJ,0.0,0.36495,,P4/mmm
JVASP-71891,BeCr2Pt,FAILED_JVASP-71891.cif,0.0,0.0,mBJ,0.0,-0.14496,,P4/mmm
JVASP-42800,Na3NiO2,FAILED_JVASP-42800.cif,0.0,0.272,mBJ,0.272,-1.19847,,Ibam
JVASP-70181,CaBe2Ga,FAILED_JVASP-70181.cif,0.0,0.0,mBJ,0.0,0.18023,,Fm-3m
JVASP-3504,NaInTe2,FAILED_JVASP-3504.cif,0.84,1.553,mBJ,0.713,-0.59533,,I4/mcm
JVASP-14584,CrPt3,FAILED_JVASP-14584.cif,0.0,0.0,mBJ,0.0,-0.23145,,Pm-3m
JVASP-71832,Be2InPt2,FAILED_JVASP-71832.cif,0.0,0.0,mBJ,0.0,-0.52662,,I4/mmm
JVASP-71578,Y2BeW,FAILED_JVASP-71578.cif,0.0,0.0,mBJ,0.0,0.11379,,P4mm
JVASP-71668,BeCo2W,FAILED_JVASP-71668.cif,0.0,0.0,mBJ,0.0,-0.14621,,I-4m2
JVASP-74388,BeCr4In,FAILED_JVASP-74388.cif,0.0,0.0,mBJ,0.0,0.49447,,F-43m
JVASP-92980,CoCu2SiS4,FAILED_JVASP-92980.cif,0.0,0.0,mBJ,0.0,-0.44414,,I-42m
JVASP-70422,Be2PW,FAILED_JVASP-70422.cif,0.0,0.0,mBJ,0.0,-0.17646,,I-4m2
JVASP-74313,Na2BePb,FAILED_JVASP-74313.cif,0.0,0.0,mBJ,0.0,0.18733,,F-43m
JVASP-74613,NaSrBe2,FAILED_JVASP-74613.cif,0.0,0.0,mBJ,0.0,0.63386,,F-43m
JVASP-70978,Sc2BeIr,FAILED_JVASP-70978.cif,0.0,0.0,mBJ,0.0,-0.45115,,P4mm
JVASP-71947,TaMn2Be,FAILED_JVASP-71947.cif,0.0,0.0,mBJ,0.0,0.05454,,I-4m2
JVASP-3702,CaHCl,FAILED_JVASP-3702.cif,3.8,5.036,mBJ,1.236,-1.65999,,P4/nmm
JVASP-70760,BeCrPd2,FAILED_JVASP-70760.cif,0.0,0.0,mBJ,0.0,-0.10734,,P4mm
JVASP-71422,BeTl2Re,FAILED_JVASP-71422.cif,0.0,0.0,mBJ,0.0,0.57041,,P4mm
JVASP-15313,VCoSb,FAILED_JVASP-15313.cif,0.0,0.751,mBJ,0.751,-0.16205,,F-43m
JVASP-70182,Be2ZnRh,FAILED_JVASP-70182.cif,0.0,0.0,mBJ,0.0,-0.30519,,I-4m2
JVASP-28377,MoSe2,FAILED_JVASP-28377.cif,0.942,1.314,mBJ,0.372,-0.66579,,P6_3/mmc
JVASP-71730,BeFe2Te,FAILED_JVASP-71730.cif,0.0,0.0,mBJ,0.0,0.39658,,I-4m2
JVASP-14639,AlCo,FAILED_JVASP-14639.cif,0.0,0.0,mBJ,0.0,-0.61841,,Pm-3m
JVASP-91478,NaIO3,FAILED_JVASP-91478.cif,3.668,4.718,mBJ,1.05,-1.01351,,Pnma
JVASP-74221,TiBe2Nb,FAILED_JVASP-74221.cif,0.0,0.0,mBJ,0.0,0.04709,,I-4m2
JVASP-2154,ZnF2,FAILED_JVASP-2154.cif,3.632,6.391,mBJ,2.759,-2.44115,,P4_2/mnm
JVASP-70482,TaBe2Sb,FAILED_JVASP-70482.cif,0.0,0.0,mBJ,0.0,0.36639,,P4mm
JVASP-15786,LiCu2P2,FAILED_JVASP-15786.cif,0.0,0.0,mBJ,0.0,-0.31898,,I4/mmm
JVASP-71671,ScBeCr2,FAILED_JVASP-71671.cif,0.0,0.0,mBJ,0.0,0.30974,,P4/mmm
JVASP-72381,Mg2BePt,FAILED_JVASP-72381.cif,0.0,0.0,mBJ,0.0,-0.3499,,I4/mmm
JVASP-74478,Be2SiMo,FAILED_JVASP-74478.cif,0.0,0.0,mBJ,0.0,0.08225,,P4mm
JVASP-71991,BeNi2P,FAILED_JVASP-71991.cif,0.0,0.0,mBJ,0.0,-0.28478,,I-4m2
JVASP-71950,TaBeIn,FAILED_JVASP-71950.cif,0.0,0.0,mBJ,0.0,0.49505,,P3m1
JVASP-71277,Na2CaBe,FAILED_JVASP-71277.cif,0.0,0.0,mBJ,0.0,0.29378,,P4mm
JVASP-74700,NaBe2P,FAILED_JVASP-74700.cif,0.0,0.0,mBJ,0.0,0.52949,,I-4m2
JVASP-74182,BeCrTc,FAILED_JVASP-74182.cif,0.0,0.0,mBJ,0.0,0.24754,,P3m1
JVASP-71315,KBeSi,FAILED_JVASP-71315.cif,0.0,0.0,mBJ,0.0,0.19968,,P-6m2
JVASP-74266,Na2TiBe2,FAILED_JVASP-74266.cif,0.0,0.0,mBJ,0.0,1.09514,,I4/mmm
JVASP-131,SnS2,FAILED_JVASP-131.cif,1.224,2.063,mBJ,0.839,-0.43988,,P-3m1
JVASP-70841,Be2TlIr,FAILED_JVASP-70841.cif,0.0,0.0,mBJ,0.0,0.29962,,P4/mmm
JVASP-74518,BeTl2V,FAILED_JVASP-74518.cif,0.0,0.0,mBJ,0.0,0.7328,,P4/mmm
JVASP-70800,BeNb2Fe,FAILED_JVASP-70800.cif,0.0,0.0,mBJ,0.0,0.01871,,P4mm
JVASP-72086,BeZnOs2,FAILED_JVASP-72086.cif,0.0,0.0,mBJ,0.0,0.22505,,I-4m2
JVASP-359,ZrTe,FAILED_JVASP-359.cif,0.0,0.0,mBJ,0.0,-0.84679,,P6_3/mmc
JVASP-70719,Be2FeSn,FAILED_JVASP-70719.cif,0.0,0.0,mBJ,0.0,0.23198,,I-4m2
JVASP-69636,Be2CuBr,FAILED_JVASP-69636.cif,0.0,0.0,mBJ,0.0,0.61138,,I-4m2
JVASP-71617,BeVSi2,FAILED_JVASP-71617.cif,0.0,0.0,mBJ,0.0,0.10332,,P4/mmm
JVASP-19871,ErCd,FAILED_JVASP-19871.cif,0.0,0.0,mBJ,0.0,-0.34079,,Pm-3m
JVASP-71048,MgBeSb2,FAILED_JVASP-71048.cif,0.0,0.0,mBJ,0.0,0.18833,,P4mm
JVASP-70761,KNa2Be,FAILED_JVASP-70761.cif,0.0,0.0,mBJ,0.0,0.47338,,P4mm
JVASP-70484,Be2NbCo,FAILED_JVASP-70484.cif,0.491,0.452,mBJ,-0.039,-0.16605,,F-43m
JVASP-71993,BeCr2Te,FAILED_JVASP-71993.cif,0.0,0.0,mBJ,0.0,0.58097,,I-4m2
JVASP-72092,Ti2BeTl,FAILED_JVASP-72092.cif,0.0,0.0,mBJ,0.0,0.10943,,I4/mmm
JVASP-53982,BN,FAILED_JVASP-53982.cif,5.91,7.136,mBJ,1.226,-1.11459,,Pnma
JVASP-74753,ScBeHg2,FAILED_JVASP-74753.cif,0.0,0.0,mBJ,0.0,0.08507,,Fm-3m
JVASP-18841,Sr3In,FAILED_JVASP-18841.cif,0.0,0.0,mBJ,0.0,-0.18201,,Fm-3m
JVASP-71896,TiBeGa2,FAILED_JVASP-71896.cif,0.0,0.0,mBJ,0.0,-0.13278,,I-4m2
JVASP-105760,ErMg3,FAILED_JVASP-105760.cif,0.0,0.0,mBJ,0.0,-0.0476,,P6_3/mmc
JVASP-85552,UO2F2,FAILED_JVASP-85552.cif,2.392,2.318,mBJ,-0.074,-3.25271,,C2/m
JVASP-74222,Na2TaBe,FAILED_JVASP-74222.cif,0.0,0.0,mBJ,0.0,1.16021,,F-43m
JVASP-1375,Li3N,FAILED_JVASP-1375.cif,1.292,2.384,mBJ,1.092,-0.52731,,P6/mmm
JVASP-72398,BeCd2Fe,FAILED_JVASP-72398.cif,0.0,0.0,mBJ,0.0,0.48496,,I-4m2
JVASP-74316,K2BeTe,FAILED_JVASP-74316.cif,0.0,0.0,mBJ,0.0,-0.05393,,P4/mmm
JVASP-71159,BeMo4Os,FAILED_JVASP-71159.cif,0.0,0.0,mBJ,0.0,0.54591,,F-43m
JVASP-71787,BeSi2W,FAILED_JVASP-71787.cif,0.0,0.0,mBJ,0.0,0.14353,,I-4m2
JVASP-71582,BeTl2Fe,FAILED_JVASP-71582.cif,0.0,0.0,mBJ,0.0,0.4809,,P4mm
JVASP-74704,TiBeBi2,FAILED_JVASP-74704.cif,0.0,0.0,mBJ,0.0,0.50151,,I4/mmm
JVASP-3705,SrHCl,FAILED_JVASP-3705.cif,3.981,5.288,mBJ,1.307,-1.71826,,P4/nmm
JVASP-15314,Sc3AlC,FAILED_JVASP-15314.cif,0.0,0.0,mBJ,0.0,-0.66365,,Pm-3m
JVASP-85712,CaH2CClO3,FAILED_JVASP-85712.cif,3.618,4.945,mBJ,1.327,-1.74276,,C2/m
JVASP-18952,Cr3Si,FAILED_JVASP-18952.cif,0.0,0.0,mBJ,0.0,-0.2875,,Pm-3n
JVASP-74395,NaBeBi2,FAILED_JVASP-74395.cif,0.0,0.0,mBJ,0.0,0.31097,,I4/mmm
JVASP-70942,Hf2BeGa,FAILED_JVASP-70942.cif,0.0,0.0,mBJ,0.0,-0.05113,,P4mm
JVASP-92982,CaCrF6,FAILED_JVASP-92982.cif,0.0,0.0,mBJ,0.0,-3.1674,,R-3
JVASP-71386,TaBeBr,FAILED_JVASP-71386.cif,0.0,0.0,mBJ,0.0,0.27596,,P3m1
JVASP-71049,ScBeTl,FAILED_JVASP-71049.cif,0.0,0.0,mBJ,0.0,-0.04784,,P-6m2
JVASP-71426,MnBePb2,FAILED_JVASP-71426.cif,0.0,0.0,mBJ,0.0,0.42415,,P4mm
JVASP-71279,TaTiBe2,FAILED_JVASP-71279.cif,0.0,0.0,mBJ,0.0,-0.02402,,P4/mmm
JVASP-69433,BeTc2Te2,FAILED_JVASP-69433.cif,0.0,0.0,mBJ,0.0,0.65382,,I4/mmm
JVASP-15,ZrTe,FAILED_JVASP-15.cif,0.0,0.0,mBJ,0.0,-0.64471,,P6_3/mmc
JVASP-18664,V5Sb4,FAILED_JVASP-18664.cif,0.0,0.0,mBJ,0.0,-0.10038,,I4/m
JVASP-71089,NaBe2Pt,FAILED_JVASP-71089.cif,0.0,0.0,mBJ,0.0,0.08056,,P4/mmm
JVASP-71836,BeCr2Tc,FAILED_JVASP-71836.cif,0.0,0.0,mBJ,0.0,0.04755,,I4/mmm
JVASP-74360,Be2NbRu,FAILED_JVASP-74360.cif,0.0,0.0,mBJ,0.0,-0.06025,,I-4m2
JVASP-74520,Be2CrSb,FAILED_JVASP-74520.cif,0.0,0.0,mBJ,0.0,0.3435,,I-4m2
JVASP-15447,USi2Pd2,FAILED_JVASP-15447.cif,0.0,0.0,mBJ,0.0,-0.55397,,I4/mmm
JVASP-1327,AlP,FAILED_JVASP-1327.cif,1.794,2.563,mBJ,0.769,-0.75173,,F-43m
JVASP-106047,Li2IBr,FAILED_JVASP-106047.cif,4.209,5.884,mBJ,1.675,-1.46356,,P3m1
JVASP-14970,Si2Mo,FAILED_JVASP-14970.cif,0.0,0.0,mBJ,0.0,-0.33639,,I4/mmm
JVASP-99060,RbInMo2O8,FAILED_JVASP-99060.cif,4.071,4.721,mBJ,0.65,-2.11126,,P-3m1
JVASP-74754,TaBe2Pd,FAILED_JVASP-74754.cif,0.0,0.0,mBJ,0.0,-0.0043,,I-4m2
JVASP-75001,K2BeMo,FAILED_JVASP-75001.cif,0.0,0.0,mBJ,0.0,1.48117,,F-43m
JVASP-71897,TiBeGe2,FAILED_JVASP-71897.cif,0.0,0.0,mBJ,0.0,-0.14592,,I-4m2
JVASP-95484,BeF2,FAILED_JVASP-95484.cif,8.036,13.386,mBJ,5.35,-3.40295,,I-43m
JVASP-74579,Sr2BeV,FAILED_JVASP-74579.cif,0.0,0.0,mBJ,0.0,0.84807,,I-4m2
JVASP-105979,Ti2NbAl,FAILED_JVASP-105979.cif,0.0,0.0,mBJ,0.0,-0.27689,,Cmcm
JVASP-19928,TmCu,FAILED_JVASP-19928.cif,0.0,0.0,mBJ,0.0,-0.3439,,Pm-3m
JVASP-74444,TaBeOs,FAILED_JVASP-74444.cif,0.0,0.0,mBJ,0.0,0.09513,,P3m1
JVASP-29262,Bi2SeO5,FAILED_JVASP-29262.cif,2.911,4.246,mBJ,1.335,-1.25067,,Aem2
JVASP-81,GaSe,FAILED_JVASP-81.cif,0.725,1.6,HSE,0.875,-0.58159,,P6_3/mmc
JVASP-74271,Be2InCl,FAILED_JVASP-74271.cif,0.0,0.0,mBJ,0.0,0.61559,,I-4m2
JVASP-71791,Be2WCl,FAILED_JVASP-71791.cif,0.0,0.0,mBJ,0.0,0.24679,,P4/mmm
JVASP-3708,BaHCl,FAILED_JVASP-3708.cif,3.582,4.838,mBJ,1.256,-1.71884,,P4/nmm
JVASP-72416,BeCd2Co,FAILED_JVASP-72416.cif,0.0,0.0,mBJ,0.0,0.38894,,Fm-3m
JVASP-74707,Be2NiMo,FAILED_JVASP-74707.cif,0.0,0.0,mBJ,0.0,-0.14923,,P4mm
JVASP-74185,Be2NbTc,FAILED_JVASP-74185.cif,0.0,0.0,mBJ,0.0,0.01652,,I-4m2
JVASP-2023,TlBiTe2,FAILED_JVASP-2023.cif,0.456,0.755,mBJ,0.299,-0.3112,,R-3m