material_id,formula,cif_path,pbe_bandgap,hse_bandgap,gap_type,correction,formation_energy,total_energy,spacegroup
JVASP-70665,Be2TlCu,FAILED_JVASP-70665.cif,0.0,0.0,mBJ,0.0,0.57348,,P4/mmm
JVASP-1342,UN2,FAILED_JVASP-1342.cif,0.864,0.974,mBJ,0.11,-1.57409,,Fm-3m
JVASP-71644,KBeTc,FAILED_JVASP-71644.cif,0.0,0.0,mBJ,0.0,0.93907,,P3m1
JVASP-69833,TaBePt,FAILED_JVASP-69833.cif,0.0,0.0,mBJ,0.0,-0.11256,,P3m1
JVASP-71358,MnBeSn2,FAILED_JVASP-71358.cif,0.0,0.0,mBJ,0.0,0.31275,,P4mm
JVASP-85662,ReF7,FAILED_JVASP-85662.cif,1.91,2.594,mBJ,0.684,-2.08085,,P-1
JVASP-75870,AsOsW2,FAILED_JVASP-75870.cif,0.0,0.0,mBJ,0.0,0.26673,,F-43m
JVASP-28403,WSeS,FAILED_JVASP-28403.cif,0.704,0.97,mBJ,0.266,-0.66701,,P3m1
JVASP-20065,HfSi2,FAILED_JVASP-20065.cif,0.0,0.0,mBJ,0.0,-0.48433,,Cmcm
JVASP-70511,TaBe2Sb,FAILED_JVASP-70511.cif,0.0,0.0,mBJ,0.0,0.36658,,P4mm
JVASP-68224,MnBePd2,FAILED_JVASP-68224.cif,0.0,0.0,mBJ,0.0,-0.16933,,I-4m2
JVASP-51442,GaFe2Co,FAILED_JVASP-51442.cif,0.0,0.0,mBJ,0.0,-0.02304,,Fm-3m
JVASP-75794,YAsRu,FAILED_JVASP-75794.cif,0.0,0.0,mBJ,0.0,-0.46206,,F-43m
JVASP-75644,AsRhBr,FAILED_JVASP-75644.cif,0.0,0.0,mBJ,0.0,1.01933,,F-43m
JVASP-85435,RbNa2NiO2,FAILED_JVASP-85435.cif,0.0,0.0,mBJ,0.0,-1.24206,,I4/mmm
JVASP-12054,Mn3CoO8,FAILED_JVASP-12054.cif,0.0,0.0,mBJ,0.0,-1.54392,,R-3m
JVASP-75685,TcTeAs,FAILED_JVASP-75685.cif,0.0,0.0,mBJ,0.0,0.18038,,F-43m
JVASP-75837,ZrAsPt,FAILED_JVASP-75837.cif,0.0,0.122,mBJ,0.122,-0.7354,,F-43m
JVASP-69666,NaBe2Fe,FAILED_JVASP-69666.cif,0.0,0.0,mBJ,0.0,0.77677,,I-4m2
JVASP-68029,Ti2MnBe,FAILED_JVASP-68029.cif,0.0,0.0,mBJ,0.0,-0.01644,,I-4m2
JVASP-105614,K3YCl6,FAILED_JVASP-105614.cif,4.705,6.286,mBJ,1.581,-2.15178,,Fm-3m
JVASP-3798,NaBiF6,FAILED_JVASP-3798.cif,2.547,3.435,mBJ,0.888,-2.21939,,R-3
JVASP-22600,RbS,FAILED_JVASP-22600.cif,1.652,3.443,mBJ,1.791,-1.04092,,Immm
JVASP-71326,NaBeRu,FAILED_JVASP-71326.cif,0.0,0.0,mBJ,0.0,0.44648,,P3m1
JVASP-70446,Be2OsCl,FAILED_JVASP-70446.cif,0.0,0.0,mBJ,0.0,0.64204,,I-4m2
JVASP-75872,AsPd2Pt,FAILED_JVASP-75872.cif,0.0,0.0,mBJ,0.0,-0.10886,,F-43m
JVASP-85781,NaH4IO2,FAILED_JVASP-85781.cif,3.838,6.032,mBJ,2.194,-1.09009,,P-1
JVASP-71171,Ta2BeCd,FAILED_JVASP-71171.cif,0.0,0.0,mBJ,0.0,0.19384,,P4mm
JVASP-69896,Be2FeBr,FAILED_JVASP-69896.cif,0.0,0.0,mBJ,0.0,0.70277,,Cmmm
JVASP-70369,Be2FeHg,FAILED_JVASP-70369.cif,0.0,0.0,mBJ,0.0,0.44578,,I-4m2
JVASP-50358,Ho2Zr2O7,FAILED_JVASP-50358.cif,2.721,3.922,mBJ,1.201,-3.74094,,Fd-3m
JVASP-85534,Pb4SeBr6,FAILED_JVASP-85534.cif,2.105,2.974,mBJ,0.869,-0.86801,,Cm
JVASP-86094,NbBr5,FAILED_JVASP-86094.cif,1.472,1.884,mBJ,0.412,-0.88574,,P-1
JVASP-539,CrSe2,FAILED_JVASP-539.cif,0.0,0.0,mBJ,0.0,-0.46379,,P-3m1
JVASP-68285,TiBeV2,FAILED_JVASP-68285.cif,0.0,0.0,mBJ,0.0,0.05547,,I-4m2
JVASP-3618,BaBrF,FAILED_JVASP-3618.cif,4.906,6.379,mBJ,1.473,-3.2857,,P4/nmm
JVASP-95169,SrH4N2,FAILED_JVASP-95169.cif,2.472,4.851,mBJ,2.379,-0.60252,,P2_1/c
JVASP-70669,SrBeBi,FAILED_JVASP-70669.cif,0.0,0.479,mBJ,0.479,-0.32029,,P3m1
JVASP-5185,CCl2F2,FAILED_JVASP-5185.cif,5.732,6.88,mBJ,1.148,-0.93936,,Fdd2
JVASP-70135,KBe2Hg,FAILED_JVASP-70135.cif,0.0,0.0,mBJ,0.0,0.89133,,Fm-3m
JVASP-71287,Be2VCl,FAILED_JVASP-71287.cif,0.0,0.0,mBJ,0.0,0.36838,,P4/mmm
JVASP-3306,Si4P4Ru,FAILED_JVASP-3306.cif,1.523,1.741,mBJ,0.218,-0.35279,,P1
JVASP-70592,Be2CdBr,FAILED_JVASP-70592.cif,0.0,0.0,mBJ,0.0,0.92174,,I4/mmm
JVASP-75646,TiAsAu,FAILED_JVASP-75646.cif,0.0,0.0,mBJ,0.0,0.01439,,F-43m
JVASP-67905,BeV2Ge,FAILED_JVASP-67905.cif,0.0,0.0,mBJ,0.0,-0.07209,,I-4m2
JVASP-92250,Li3SbS4,FAILED_JVASP-92250.cif,2.026,2.857,mBJ,0.831,-0.94829,,I-42m
JVASP-1345,YbTe,FAILED_JVASP-1345.cif,1.486,2.545,mBJ,1.059,-1.75446,,Fm-3m
JVASP-70958,Ca2BeBi,FAILED_JVASP-70958.cif,0.0,0.0,mBJ,0.0,0.01597,,P4mm
JVASP-71136,BePdRu2,FAILED_JVASP-71136.cif,0.0,0.0,mBJ,0.0,-0.15256,,P4mm
JVASP-68933,WS2,FAILED_JVASP-68933.cif,0.0,0.0,mBJ,0.0,-0.90944,,C2/m
JVASP-70774,BeCoTe2,FAILED_JVASP-70774.cif,0.0,0.0,mBJ,0.0,0.1509,,P4mm
JVASP-67962,BeGaW2,FAILED_JVASP-67962.cif,0.0,0.0,mBJ,0.0,-0.00727,,I-4m2
JVASP-106119,CaMgS2,FAILED_JVASP-106119.cif,2.773,3.656,mBJ,0.883,-1.97871,,R-3m
JVASP-87099,AsF5,FAILED_JVASP-87099.cif,4.528,6.436,mBJ,1.908,-2.02128,,P6_3/mmc
JVASP-60762,CoH2SeO4,FAILED_JVASP-60762.cif,0.046,0.603,mBJ,0.557,-0.87253,,P2_1/c
JVASP-15267,ScCo2Sn,FAILED_JVASP-15267.cif,0.0,0.0,mBJ,0.0,-0.41583,,Fm-3m
JVASP-70998,KBe2Te,FAILED_JVASP-70998.cif,0.0,0.0,mBJ,0.0,0.73121,,P4/mmm
JVASP-70061,MnBe2Tl,FAILED_JVASP-70061.cif,0.0,0.0,mBJ,0.0,0.58789,,I-4m2
JVASP-70920,BeMoOs2,FAILED_JVASP-70920.cif,0.0,0.0,mBJ,0.0,0.01218,,P4mm
JVASP-71247,Be2TlV,FAILED_JVASP-71247.cif,0.0,0.0,mBJ,0.0,0.46273,,P4/mmm
JVASP-75686,SbAsOs,FAILED_JVASP-75686.cif,0.0,0.0,mBJ,0.0,0.21863,,F-43m
JVASP-71709,BeRuRh2,FAILED_JVASP-71709.cif,0.0,0.0,mBJ,0.0,-0.04325,,I-4m2
JVASP-68105,BeTc2Ge,FAILED_JVASP-68105.cif,0.0,0.0,mBJ,0.0,0.12783,,I-4m2
JVASP-69967,Be2VRu,FAILED_JVASP-69967.cif,0.0,0.0,mBJ,0.0,-0.1068,,Cmmm
JVASP-19861,SmRh2,FAILED_JVASP-19861.cif,0.0,0.0,mBJ,0.0,-0.73243,,Fd-3m
JVASP-71397,Be2InNi,FAILED_JVASP-71397.cif,0.0,0.0,mBJ,0.0,0.08231,,P4mm
JVASP-106193,TbI3,FAILED_JVASP-106193.cif,1.688,2.566,mBJ,0.878,-1.33963,,P6_3/mmc
JVASP-3801,RbBiF6,FAILED_JVASP-3801.cif,2.524,3.305,mBJ,0.781,-2.28846,,R-3
JVASP-71029,MgTa2Be,FAILED_JVASP-71029.cif,0.0,0.0,mBJ,0.0,0.34984,,P4mm
JVASP-71210,BeCoHg2,FAILED_JVASP-71210.cif,0.0,0.0,mBJ,0.0,0.36871,,P4mm
JVASP-70519,MnBe2Ga,FAILED_JVASP-70519.cif,0.135,0.136,mBJ,0.001,-0.06087,,I-4m2
JVASP-105685,Rb3DyCl6,FAILED_JVASP-105685.cif,4.748,6.591,mBJ,1.843,-2.16567,,Fm-3m
JVASP-70960,BeTcW2,FAILED_JVASP-70960.cif,0.0,0.0,mBJ,0.0,-0.18404,,P4mm
JVASP-71818,BeFe2Mo,FAILED_JVASP-71818.cif,0.0,0.0,mBJ,0.0,-0.10955,,Fm-3m
JVASP-71765,BeCrCo2,FAILED_JVASP-71765.cif,0.0,0.0,mBJ,0.0,-0.09754,,I4/mmm
JVASP-85663,HPbClO,FAILED_JVASP-85663.cif,3.224,4.339,mBJ,1.115,-1.20421,,C2/m
JVASP-86560,MnClO3,FAILED_JVASP-86560.cif,1.72,2.093,mBJ,0.373,-1.00964,,Cmc2_1
JVASP-68290,BeCoNi2,FAILED_JVASP-68290.cif,0.0,0.0,mBJ,0.0,-0.10516,,I-4m2
JVASP-70854,Ca4BeP,FAILED_JVASP-70854.cif,0.0,0.0,mBJ,0.0,0.64668,,F-43m
JVASP-69673,Be2VGa,FAILED_JVASP-69673.cif,0.0,0.0,mBJ,0.0,0.08664,,I-4m2
JVASP-75839,SiMo2As,FAILED_JVASP-75839.cif,0.0,0.0,mBJ,0.0,0.24803,,F-43m
JVASP-71069,MgBeW2,FAILED_JVASP-71069.cif,0.0,0.0,mBJ,0.0,0.08851,,P4mm
JVASP-70233,ScBeGe,FAILED_JVASP-70233.cif,0.0,0.0,mBJ,0.0,-0.62158,,P-6m2
JVASP-86723,LiBH2,FAILED_JVASP-86723.cif,0.534,0.669,mBJ,0.135,0.1788,,Pnma
JVASP-71249,BeTl2Ni,FAILED_JVASP-71249.cif,0.0,0.0,mBJ,0.0,0.20771,,P4mm
JVASP-70598,LiBe2Se,FAILED_JVASP-70598.cif,0.0,0.0,mBJ,0.0,0.21023,,I-4m2
JVASP-69977,Be2VNi,FAILED_JVASP-69977.cif,0.0,0.39,mBJ,0.39,-0.12632,,F-43m
JVASP-15648,PrSi2Os2,FAILED_JVASP-15648.cif,0.0,0.0,mBJ,0.0,-0.65823,,I4/mmm
JVASP-70777,BeGaIr2,FAILED_JVASP-70777.cif,0.0,0.0,mBJ,0.0,-0.28638,,P4mm
JVASP-69764,Be2RhCl,FAILED_JVASP-69764.cif,0.0,0.0,mBJ,0.0,0.19923,,I-4m2
JVASP-72208,BeNb2Sb,FAILED_JVASP-72208.cif,0.0,0.0,mBJ,0.0,0.17102,,I-4m2
JVASP-70376,Be2TlMo,FAILED_JVASP-70376.cif,0.0,0.0,mBJ,0.0,0.50054,,I-4m2
JVASP-1423,AuSe,FAILED_JVASP-1423.cif,0.01,0.249,mBJ,0.239,-0.07314,,C2/m
JVASP-71980,MnBeCl2,FAILED_JVASP-71980.cif,0.0,0.0,mBJ,0.0,0.16113,,I-4m2
JVASP-56962,CrGaCo2,FAILED_JVASP-56962.cif,0.0,0.0,mBJ,0.0,-0.08974,,Fm-3m
JVASP-71031,BeRe2Os,FAILED_JVASP-71031.cif,0.0,0.0,mBJ,0.0,0.14259,,F-43m
JVASP-69591,Be2SnBr,FAILED_JVASP-69591.cif,0.0,0.0,mBJ,0.0,0.66018,,I-4m2
JVASP-71931,TiBe2V,FAILED_JVASP-71931.cif,0.0,0.0,mBJ,0.0,-0.04824,,P4/mmm
JVASP-29025,Te2MoWSe2,FAILED_JVASP-29025.cif,0.656,0.651,mBJ,-0.005,-0.33988,,P-3m1
JVASP-71177,BeBiW2,FAILED_JVASP-71177.cif,0.0,0.0,mBJ,0.0,0.16207,,P4mm
JVASP-15784,USi2,FAILED_JVASP-15784.cif,0.0,0.0,mBJ,0.0,-0.21169,,I4_1/amd
JVASP-70922,BeNb2In,FAILED_JVASP-70922.cif,0.0,0.0,mBJ,0.0,0.22829,,P4mm
JVASP-71651,BeRhCl2,FAILED_JVASP-71651.cif,0.0,0.0,mBJ,0.0,0.27219,,I-4m2
JVASP-85707,CaZrGeO5,FAILED_JVASP-85707.cif,3.789,4.996,mBJ,1.207,-2.94078,,P-1
JVASP-72025,TiBeSi2,FAILED_JVASP-72025.cif,0.0,0.0,mBJ,0.0,-0.23097,,I-4m2
JVASP-70377,Be2CrW,FAILED_JVASP-70377.cif,0.0,0.0,mBJ,0.0,0.0039,,I-4m2
JVASP-21199,Th,FAILED_JVASP-21199.cif,0.0,0.0,mBJ,0.0,0.0,,Fm-3m
JVASP-69674,TiBe2Ge,FAILED_JVASP-69674.cif,0.0,0.0,mBJ,0.0,-0.23743,,P4/mmm
JVASP-15817,Ti5Te4,FAILED_JVASP-15817.cif,0.0,0.0,mBJ,0.0,-0.6746,,I4/m
JVASP-71329,Be2NbTc,FAILED_JVASP-71329.cif,0.0,0.0,mBJ,0.0,0.1365,,P4mm
JVASP-85782,BaSO2,FAILED_JVASP-85782.cif,1.744,2.866,mBJ,1.122,-1.9698,,Pnma
JVASP-70612,BeVPt,FAILED_JVASP-70612.cif,0.0,0.0,mBJ,0.0,-0.10643,,P3m1
JVASP-70889,Li2BeCl,FAILED_JVASP-70889.cif,0.0,0.0,mBJ,0.0,-0.39575,,P4mm
JVASP-17333,VS2,FAILED_JVASP-17333.cif,0.024,0.0,mBJ,-0.024,-0.71162,,I-42d
JVASP-3621,BiBrO,FAILED_JVASP-3621.cif,2.293,3.211,mBJ,0.918,-1.25771,,P4/nmm
JVASP-85850,PuTe,FAILED_JVASP-85850.cif,0.0,0.0,mBJ,0.0,-1.28047,,Fm-3m
JVASP-14662,SmCo2,FAILED_JVASP-14662.cif,0.0,0.0,mBJ,0.0,-0.14528,,Fd-3m
JVASP-71768,BeCr2P,FAILED_JVASP-71768.cif,0.0,0.0,mBJ,0.0,-0.06145,,I-4m2
JVASP-86435,CaUO4,FAILED_JVASP-86435.cif,2.339,2.366,mBJ,0.027,-3.49601,,R-3m
JVASP-1315,BaS,FAILED_JVASP-1315.cif,2.148,3.279,mBJ,1.131,-2.275,,Fm-3m
JVASP-92258,ErCl3,FAILED_JVASP-92258.cif,3.295,5.11,mBJ,1.815,-2.238,,P6_3/mmc
JVASP-60766,CoTeO4,FAILED_JVASP-60766.cif,0.0,0.021,mBJ,0.021,-0.85579,,P2/m
JVASP-71442,Be2NbRh,FAILED_JVASP-71442.cif,0.0,0.0,mBJ,0.0,-0.34684,,P4/mmm
JVASP-15488,CoSbS,FAILED_JVASP-15488.cif,0.0,0.0,mBJ,0.0,-0.40038,,Pmn2_1
JVASP-69985,Be2HgRh,FAILED_JVASP-69985.cif,0.0,0.0,mBJ,0.0,0.11283,,I-4m2
JVASP-69767,Be2CrSi,FAILED_JVASP-69767.cif,0.0,0.0,mBJ,0.0,0.30217,,P4/mmm
JVASP-1351,YbS,FAILED_JVASP-1351.cif,2.207,3.458,mBJ,1.251,-2.45728,,Fm-3m
JVASP-91250,Na2BeGeO4,FAILED_JVASP-91250.cif,3.933,6.191,mBJ,2.258,-2.20746,,P2_1/c
JVASP-18702,Fe3Pd,FAILED_JVASP-18702.cif,0.0,0.0,mBJ,0.0,0.28446,,Pm-3m
JVASP-71596,Be2CrPt,FAILED_JVASP-71596.cif,0.0,0.0,mBJ,0.0,-0.21437,,P4/mmm
JVASP-74206,BeBi2W,FAILED_JVASP-74206.cif,0.0,0.0,mBJ,0.0,1.02578,,I4/mmm
JVASP-69592,MgBe2Se,FAILED_JVASP-69592.cif,0.0,0.0,mBJ,0.0,0.33858,,P4/mmm
JVASP-70316,NaCaBe,FAILED_JVASP-70316.cif,0.0,0.0,mBJ,0.0,0.55057,,P3m1
JVASP-87100,K2TeO3,FAILED_JVASP-87100.cif,3.695,4.876,mBJ,1.181,-1.65919,,P-3
JVASP-4849,AlN,FAILED_JVASP-4849.cif,3.688,4.429,mBJ,0.741,-1.52261,,P6_3/mmc
JVASP-70068,MnBe2Cd,FAILED_JVASP-70068.cif,0.0,0.0,mBJ,0.0,0.4241,,I-4m2
JVASP-70963,BeSi2Sb,FAILED_JVASP-70963.cif,0.0,0.0,mBJ,0.0,0.49746,,P4mm
JVASP-71330,Sr2ScBe,FAILED_JVASP-71330.cif,0.0,0.0,mBJ,0.0,0.23594,,P4mm
JVASP-106120,CaNdCoO4,FAILED_JVASP-106120.cif,0.0,0.0,mBJ,0.0,-2.64552,,I4mm
JVASP-71214,BeCrPd2,FAILED_JVASP-71214.cif,0.0,0.0,mBJ,0.0,-0.10734,,P4mm
JVASP-106194,Li2WS4,FAILED_JVASP-106194.cif,1.318,2.322,mBJ,1.004,-0.92454,,P-42m
JVASP-95175,KNOF2,FAILED_JVASP-95175.cif,3.175,4.122,mBJ,0.947,-1.46694,,Pnma
JVASP-70143,LiBe2Ni,FAILED_JVASP-70143.cif,0.0,0.0,mBJ,0.0,-0.0525,,I-4m2
JVASP-71652,BeCo2Si,FAILED_JVASP-71652.cif,0.0,0.0,mBJ,0.0,-0.25336,,I-4m2
JVASP-44293,TbNbO4,FAILED_JVASP-44293.cif,3.279,3.968,mBJ,0.689,-3.33508,,P2/c
JVASP-71516,Sr2BeNi,FAILED_JVASP-71516.cif,0.0,0.0,mBJ,0.0,0.20635,,P4mm
JVASP-74252,YScBe,FAILED_JVASP-74252.cif,0.0,0.0,mBJ,0.0,0.26074,,P3m1
JVASP-70926,BeRe2Hg,FAILED_JVASP-70926.cif,0.0,0.0,mBJ,0.0,0.31669,,P4mm
JVASP-105887,Zr3Be,FAILED_JVASP-105887.cif,0.0,0.0,mBJ,0.0,0.05756,,I4/mmm
JVASP-68292,BeRu2Pb,FAILED_JVASP-68292.cif,0.0,0.0,mBJ,0.0,0.34573,,P4mm
JVASP-72026,BeMo2Ru,FAILED_JVASP-72026.cif,0.0,0.0,mBJ,0.0,0.15208,,I-4m2
JVASP-42794,Li4VCr3O8,FAILED_JVASP-42794.cif,0.0,0.0,mBJ,0.0,-2.28658,,R-3m
JVASP-69844,MnBe2Pd,FAILED_JVASP-69844.cif,0.0,0.0,mBJ,0.0,-0.26682,,P4/mmm
JVASP-69512,KBe2Ga,FAILED_JVASP-69512.cif,0.0,0.0,mBJ,0.0,0.80384,,Fm-3m
JVASP-69682,Be2ReGe,FAILED_JVASP-69682.cif,0.0,0.0,mBJ,0.0,0.1171,,P4mm
JVASP-105823,Mn2NbGa,FAILED_JVASP-105823.cif,0.0,0.0,mBJ,0.0,-0.13563,,Fm-3m
JVASP-69601,Be2TlPd,FAILED_JVASP-69601.cif,0.0,0.0,mBJ,0.0,0.08365,,P4/mmm
JVASP-71033,BeCuHg2,FAILED_JVASP-71033.cif,0.0,0.0,mBJ,0.0,0.40515,,P4mm
JVASP-70858,BeMoP2,FAILED_JVASP-70858.cif,0.0,0.0,mBJ,0.0,0.00237,,P4mm
JVASP-70147,TiBe2Zn,FAILED_JVASP-70147.cif,0.0,0.0,mBJ,0.0,0.04838,,F-43m
JVASP-71822,HfBeBi,FAILED_JVASP-71822.cif,0.0,0.0,mBJ,0.0,0.49126,,P3m1
JVASP-69990,MnBe2Ga,FAILED_JVASP-69990.cif,0.0,0.0,mBJ,0.0,0.09563,,P4mm
JVASP-70456,Be2VRu,FAILED_JVASP-70456.cif,0.0,0.0,mBJ,0.0,-0.17436,,F-43m
JVASP-75884,Re2GeAs,FAILED_JVASP-75884.cif,0.006,0.0,mBJ,-0.006,0.68146,,F-43m
JVASP-48445,MnOF,FAILED_JVASP-48445.cif,0.037,0.0,mBJ,-0.037,-2.11271,,P4_12_12
JVASP-70891,BeRu2Pb,FAILED_JVASP-70891.cif,0.0,0.0,mBJ,0.0,0.31597,,P4mm
JVASP-74169,K2BeZn,FAILED_JVASP-74169.cif,0.0,0.0,mBJ,0.0,0.55583,,P4/mmm
JVASP-70398,MnBe2Pd,FAILED_JVASP-70398.cif,0.0,0.0,mBJ,0.0,-0.26681,,P4/mmm
JVASP-71252,Be2InRu,FAILED_JVASP-71252.cif,0.0,0.0,mBJ,0.0,0.11469,,P4mm
JVASP-71444,Be2GaTc,FAILED_JVASP-71444.cif,0.0,0.0,mBJ,0.0,0.10093,,P4mm
JVASP-22729,Sr2SbAu,FAILED_JVASP-22729.cif,0.771,0.975,mBJ,0.204,-1.05124,,Fm-3m
JVASP-71773,ScBeRu2,FAILED_JVASP-71773.cif,0.0,0.0,mBJ,0.0,-0.12668,,I-4m2
JVASP-85664,KH3C2O3,FAILED_JVASP-85664.cif,5.513,7.419,mBJ,1.906,-1.02674,,P-1
JVASP-1189,InSb,FAILED_JVASP-1189.cif,0.0,0.134,mBJ,0.134,-0.09369,,F-43m
JVASP-69906,TiBeCr,FAILED_JVASP-69906.cif,0.0,0.0,mBJ,0.0,0.31602,,P3m1
JVASP-71718,BeCo2Pt,FAILED_JVASP-71718.cif,0.0,0.0,mBJ,0.0,-0.14892,,I-4m2
JVASP-71823,ZrBeCl2,FAILED_JVASP-71823.cif,0.0,0.0,mBJ,0.0,-0.18483,,I-4m2
JVASP-76204,NdScSi,FAILED_JVASP-76204.cif,0.0,0.0,mBJ,0.0,-0.62596,,I4/mmm
JVASP-1318,CaTe,FAILED_JVASP-1318.cif,1.559,2.061,mBJ,0.502,-1.77034,,Fm-3m
JVASP-69994,Be2NbOs,FAILED_JVASP-69994.cif,0.0,0.0,mBJ,0.0,-0.03681,,I-4m2
JVASP-72263,BeTcHg2,FAILED_JVASP-72263.cif,0.0,0.0,mBJ,0.0,0.8759,,I4/mmm
JVASP-70964,HfBeP2,FAILED_JVASP-70964.cif,0.0,0.0,mBJ,0.0,-0.5017,,P4mm
JVASP-74294,HfBeTl,FAILED_JVASP-74294.cif,0.0,0.0,mBJ,0.0,0.5118,,P3m1
JVASP-70529,TaBe2Tl,FAILED_JVASP-70529.cif,0.0,0.0,mBJ,0.0,0.54453,,I-4m2
JVASP-69399,HfMnBe2,FAILED_JVASP-69399.cif,0.0,0.0,mBJ,0.0,0.19036,,I-4m2
JVASP-74253,Sr2BeZn,FAILED_JVASP-74253.cif,0.0,0.0,mBJ,0.0,0.08253,,Fm-3m
JVASP-70248,Be2SiW,FAILED_JVASP-70248.cif,0.0,0.0,mBJ,0.0,-0.31539,,I-4m2
JVASP-14635,TbNi2,FAILED_JVASP-14635.cif,0.0,0.0,mBJ,0.0,-0.48814,,Fd-3m
JVASP-4747,ZnNi3Sb2,FAILED_JVASP-4747.cif,0.0,0.0,mBJ,0.0,-0.0298,,P-3m1
JVASP-70069,TiBe2Cr,FAILED_JVASP-70069.cif,0.0,0.0,mBJ,0.0,0.00685,,P4/mmm
JVASP-71983,Mn2BeTc,FAILED_JVASP-71983.cif,0.0,0.0,mBJ,0.0,0.03702,,I4/mmm
JVASP-16118,YSiAu,FAILED_JVASP-16118.cif,0.0,0.0,mBJ,0.0,-0.84238,,P6_3mc
JVASP-71719,KBeNb,FAILED_JVASP-71719.cif,0.0,0.0,mBJ,0.0,0.96311,,P3m1
JVASP-71074,Sr2BeBi,FAILED_JVASP-71074.cif,0.0,0.0,mBJ,0.0,-0.00359,,P4/mmm
JVASP-17334,MnN,FAILED_JVASP-17334.cif,0.0,0.0,mBJ,0.0,-0.14478,,Pmm2
JVASP-14801,TiRu,FAILED_JVASP-14801.cif,0.0,0.0,mBJ,0.0,-0.76496,,Pm-3m
JVASP-70927,BeNb2Ir,FAILED_JVASP-70927.cif,0.0,0.0,mBJ,0.0,-0.28879,,P4mm
JVASP-16096,TlCu2S2,FAILED_JVASP-16096.cif,0.0,0.0,mBJ,0.0,-0.31281,,I4/mmm
JVASP-68294,BeFePt2,FAILED_JVASP-68294.cif,0.0,0.0,mBJ,0.0,-0.21437,,I-4m2
JVASP-72267,BeP2Rh,FAILED_JVASP-72267.cif,0.0,0.0,mBJ,0.0,0.19583,,P4/mmm
JVASP-72027,MnBeIr2,FAILED_JVASP-72027.cif,0.0,0.0,mBJ,0.0,-0.17902,,I-4m2
JVASP-69774,TiBeHg,FAILED_JVASP-69774.cif,0.0,0.0,mBJ,0.0,0.72236,,F-43m
JVASP-70780,BeNb2Fe,FAILED_JVASP-70780.cif,0.0,0.0,mBJ,0.0,0.01891,,P4mm
JVASP-70534,TiBe2Ge,FAILED_JVASP-70534.cif,0.0,0.0,mBJ,0.0,0.15076,,P4/mmm
JVASP-69604,BeFeOs,FAILED_JVASP-69604.cif,0.0,0.0,mBJ,0.0,0.10748,,P3m1
JVASP-70748,BeNi2Mo,FAILED_JVASP-70748.cif,0.0,0.0,mBJ,0.0,-0.1174,,P4mm
JVASP-70618,Be2NbCo,FAILED_JVASP-70618.cif,0.0,0.0,mBJ,0.0,0.01933,,P4/mmm
JVASP-69515,ScBe2Si,FAILED_JVASP-69515.cif,0.0,0.0,mBJ,0.0,0.04632,,I4/mmm
JVASP-14708,GePd2,FAILED_JVASP-14708.cif,0.0,0.0,mBJ,0.0,-0.48734,,P-62m
JVASP-2175,Ga2Te5,FAILED_JVASP-2175.cif,0.956,1.449,mBJ,0.493,-0.22494,,I4/m
JVASP-86022,Cr2AgBiO8,FAILED_JVASP-86022.cif,1.302,1.244,mBJ,-0.058,-1.60568,,I-4
JVASP-70965,BeFeP2,FAILED_JVASP-70965.cif,0.0,0.0,mBJ,0.0,-0.02246,,P4mm
JVASP-71216,BeCrIn2,FAILED_JVASP-71216.cif,0.0,0.0,mBJ,0.0,0.40299,,P4mm
JVASP-60771,CoO2,FAILED_JVASP-60771.cif,0.0,0.0,mBJ,0.0,-0.98811,,R-3m
JVASP-70696,HfBe2Fe,FAILED_JVASP-70696.cif,0.0,0.0,mBJ,0.0,0.0515,,F-43m
JVASP-71256,ZrBeCl,FAILED_JVASP-71256.cif,0.0,0.429,mBJ,0.429,-0.32558,,P3m1
JVASP-105969,U2Si3Ru,FAILED_JVASP-105969.cif,0.0,0.0,mBJ,0.0,-0.36568,,Pmm2
JVASP-71519,BeCrNi,FAILED_JVASP-71519.cif,0.0,0.0,mBJ,0.0,0.06756,,P3m1
JVASP-60623,Ge3Sb2O9,FAILED_JVASP-60623.cif,3.037,4.96,mBJ,1.923,-1.61248,,P6_3/m
JVASP-70462,Be2ReGe,FAILED_JVASP-70462.cif,0.0,0.0,mBJ,0.0,0.03229,,I-4m2
JVASP-70537,Be2TlHg,FAILED_JVASP-70537.cif,0.0,0.0,mBJ,0.0,0.78698,,I-4m2
JVASP-71566,Be2CrRh,FAILED_JVASP-71566.cif,0.0,0.0,mBJ,0.0,-0.1633,,P4/mmm
JVASP-70318,Be2FePd,FAILED_JVASP-70318.cif,0.0,0.0,mBJ,0.0,-0.32428,,P4/mmm
JVASP-92260,Fe3C,FAILED_JVASP-92260.cif,0.0,0.0,mBJ,0.0,0.02842,,P6_322
JVASP-71775,BeNi2W,FAILED_JVASP-71775.cif,0.0,0.0,mBJ,0.0,-0.15351,,I4/mmm
JVASP-69777,Be2NbGa,FAILED_JVASP-69777.cif,0.0,0.0,mBJ,0.0,0.06973,,I-4m2
JVASP-63883,Ba4YPt,FAILED_JVASP-63883.cif,0.0,0.0,mBJ,0.0,0.62051,,F-43m
JVASP-71601,Be2WSe,FAILED_JVASP-71601.cif,0.0,0.0,mBJ,0.0,0.12879,,P4/mmm
JVASP-42847,Pr2AgRu,FAILED_JVASP-42847.cif,0.0,0.0,mBJ,0.0,-0.22295,,Fm-3m
JVASP-15394,BaP2Ru2,FAILED_JVASP-15394.cif,0.0,0.0,mBJ,0.0,-0.94122,,I4/mmm
JVASP-71480,BeCrSb2,FAILED_JVASP-71480.cif,0.0,0.0,mBJ,0.0,0.34631,,P4mm
JVASP-20093,NbPd3,FAILED_JVASP-20093.cif,0.0,0.0,mBJ,0.0,-0.42379,,I4/mmm
JVASP-63885,Ba4TiPd,FAILED_JVASP-63885.cif,0.0,0.0,mBJ,0.0,0.93532,,F-43m
JVASP-71036,BeCoHg2,FAILED_JVASP-71036.cif,0.0,0.0,mBJ,0.0,0.36871,,P4mm
JVASP-70828,BeCoPd2,FAILED_JVASP-70828.cif,0.0,0.0,mBJ,0.0,-0.19871,,P4mm
JVASP-50361,TbTaO4,FAILED_JVASP-50361.cif,3.739,4.944,mBJ,1.205,-3.49255,,P2_1/c
JVASP-71825,TiBeCl2,FAILED_JVASP-71825.cif,0.0,0.0,mBJ,0.0,-0.05603,,I-4m2
JVASP-69917,TaBe2Pt,FAILED_JVASP-69917.cif,0.0,0.0,mBJ,0.0,-0.21714,,I-4m2
JVASP-71985,MgTaBe2,FAILED_JVASP-71985.cif,0.0,0.0,mBJ,0.0,0.14769,,P4/mmm
JVASP-70619,Be2GePb,FAILED_JVASP-70619.cif,0.0,0.0,mBJ,0.0,0.76401,,I-4m2
JVASP-44010,Fe6O7F5,FAILED_JVASP-44010.cif,0.0,0.0,mBJ,0.0,-1.66288,,P1
JVASP-71720,MgBeIr2,FAILED_JVASP-71720.cif,0.0,0.0,mBJ,0.0,-0.12064,,I-4m2
JVASP-95036,TiSi2,FAILED_JVASP-95036.cif,0.0,0.0,mBJ,0.0,-0.46567,,Cmcm
JVASP-16097,ZrTiTe4,FAILED_JVASP-16097.cif,0.0,0.0,mBJ,0.0,-0.80493,,P2/m
JVASP-74209,Be2ZnMo,FAILED_JVASP-74209.cif,0.0,0.0,mBJ,0.0,0.19321,,I-4m2
JVASP-69521,Be2ZnRu,FAILED_JVASP-69521.cif,0.0,0.0,mBJ,0.0,-0.1629,,I-4m2
JVASP-71217,Ti2BeCo,FAILED_JVASP-71217.cif,0.0,0.0,mBJ,0.0,-0.22644,,P4mm
JVASP-72035,BeWCl2,FAILED_JVASP-72035.cif,0.0,0.0,mBJ,0.0,0.89771,,I-4m2
JVASP-70463,LiBe2Co,FAILED_JVASP-70463.cif,0.0,0.0,mBJ,0.0,0.03142,,F-43m
JVASP-71826,BeTcIr2,FAILED_JVASP-71826.cif,0.0,0.0,mBJ,0.0,-0.07663,,I-4m2
JVASP-69854,Be2CoTc,FAILED_JVASP-69854.cif,0.0,0.0,mBJ,0.0,-0.04758,,I-4m2
JVASP-70751,BeBiSe2,FAILED_JVASP-70751.cif,0.0,0.0,mBJ,0.0,-0.16595,,P4mm
JVASP-70968,BeNbRu2,FAILED_JVASP-70968.cif,0.0,0.0,mBJ,0.0,-0.07883,,P4mm
JVASP-63887,Ba4MgMn,FAILED_JVASP-63887.cif,0.0,0.0,mBJ,0.0,1.13317,,F-43m
JVASP-14636,Si,FAILED_JVASP-14636.cif,0.0,0.0,mBJ,0.0,0.7229,,Fm-3m
JVASP-71009,Sc2BeBr,FAILED_JVASP-71009.cif,0.0,0.0,mBJ,0.0,-0.37774,,P4/mmm
JVASP-70409,Be2ReSe,FAILED_JVASP-70409.cif,0.0,0.0,mBJ,0.0,0.4547,,I-4m2
JVASP-71568,HfBeCl,FAILED_JVASP-71568.cif,0.0,0.415,mBJ,0.415,-0.26513,,P3m1
JVASP-60627,UTe3,FAILED_JVASP-60627.cif,0.0,0.0,mBJ,0.0,-0.54021,,Cmcm
JVASP-3690,KMgH3,FAILED_JVASP-3690.cif,3.471,5.5,mBJ,2.029,-0.38946,,Pm-3m
JVASP-71940,BeCo2Os,FAILED_JVASP-71940.cif,0.0,0.0,mBJ,0.0,-0.00646,,I4/mmm
JVASP-69778,TiBe2Ru,FAILED_JVASP-69778.cif,0.0,0.0,mBJ,0.0,-0.30769,,I4/mmm
JVASP-70893,Be2IrBr,FAILED_JVASP-70893.cif,0.0,0.0,mBJ,0.0,0.38427,,Cmmm
JVASP-14710,CoSe,FAILED_JVASP-14710.cif,0.0,0.0,mBJ,0.0,-0.1505,,P6_3/mmc
JVASP-69614,Be2CrRu,FAILED_JVASP-69614.cif,0.0,0.0,mBJ,0.0,-0.02922,,Fm-3m
JVASP-70255,BeTcPd,FAILED_JVASP-70255.cif,0.0,0.0,mBJ,0.0,0.016,,P3m1