material_id,formula,cif_path,pbe_bandgap,hse_bandgap,gap_type,correction,formation_energy,total_energy,spacegroup
JVASP-66568,BaTlIn,FAILED_JVASP-66568.cif,0.0,0.0,mBJ,0.0,0.00125,,F-43m
JVASP-67617,YScBe,FAILED_JVASP-67617.cif,0.0,0.0,mBJ,0.0,0.03135,,I4mm
JVASP-1705,RbPrSe2,FAILED_JVASP-1705.cif,1.869,2.783,mBJ,0.914,-1.82775,,R-3m
JVASP-66526,Ba4ZrIr,FAILED_JVASP-66526.cif,0.0,0.0,mBJ,0.0,1.13318,,F-43m
JVASP-66032,Ba4NiGe,FAILED_JVASP-66032.cif,0.0,0.0,mBJ,0.0,0.68033,,F-43m
JVASP-65770,BaBeCl2,FAILED_JVASP-65770.cif,0.25,0.585,mBJ,0.335,-1.07662,,P4/mmm
JVASP-87077,EuP2Rh2,FAILED_JVASP-87077.cif,0.0,0.0,mBJ,0.0,-1.05056,,I4/mmm
JVASP-67351,Be2GaNi,FAILED_JVASP-67351.cif,0.0,0.0,mBJ,0.0,-0.14895,,I4/mmm
JVASP-67270,TiBe2Se,FAILED_JVASP-67270.cif,0.0,0.0,mBJ,0.0,-0.09228,,P4mm
JVASP-67737,BeInRh2,FAILED_JVASP-67737.cif,0.0,0.0,mBJ,0.0,-0.19114,,P4mm
JVASP-85336,EuMn2Sb2,FAILED_JVASP-85336.cif,0.0,0.0,mBJ,0.0,-0.17906,,P-3m1
JVASP-69150,BaZnP2,FAILED_JVASP-69150.cif,0.0,0.0,mBJ,0.0,-0.09901,,P4/mmm
JVASP-42337,VOF3,FAILED_JVASP-42337.cif,2.861,3.279,mBJ,0.418,-2.72253,,Cmc2_1
JVASP-66406,BaGaTe,FAILED_JVASP-66406.cif,0.0,1.681,mBJ,1.681,-0.52324,,F-43m
JVASP-67039,TaBe2Tl,FAILED_JVASP-67039.cif,0.0,0.0,mBJ,0.0,0.48075,,P4/mmm
JVASP-62986,NdSnAu,FAILED_JVASP-62986.cif,0.0,0.0,mBJ,0.0,-0.85442,,P6_3mc
JVASP-63235,B2O3,FAILED_JVASP-63235.cif,6.541,9.188,mBJ,2.647,-2.53251,,P3_121
JVASP-42260,FeOF,FAILED_JVASP-42260.cif,0.0,0.0,mBJ,0.0,-1.70092,,Pmn2_1
JVASP-43805,LiVF4,FAILED_JVASP-43805.cif,0.0,0.0,mBJ,0.0,-3.05337,,Pbcn
JVASP-15698,CaP2Pd2,FAILED_JVASP-15698.cif,0.0,0.0,mBJ,0.0,-0.85118,,I4/mmm
JVASP-66570,Ba4GePd,FAILED_JVASP-66570.cif,0.0,0.0,mBJ,0.0,0.44117,,F-43m
JVASP-66204,Ba4FeMo,FAILED_JVASP-66204.cif,0.0,0.0,mBJ,0.0,1.68169,,F-43m
JVASP-15224,YCo2B2,FAILED_JVASP-15224.cif,0.0,0.0,mBJ,0.0,-0.60588,,I4/mmm
JVASP-69355,BaHgW2,FAILED_JVASP-69355.cif,0.0,0.0,mBJ,0.0,1.56599,,P4/mmm
JVASP-68295,BeCo2Bi,FAILED_JVASP-68295.cif,0.0,0.0,mBJ,0.0,0.4894,,I-4m2
JVASP-22708,Rb4I2O,FAILED_JVASP-22708.cif,0.854,2.178,mBJ,1.324,-1.44466,,I4/mmm
JVASP-86180,Cd2OsC6N6,FAILED_JVASP-86180.cif,2.4,3.831,mBJ,1.431,0.1355,,P-31m
JVASP-66676,BaTlSn,FAILED_JVASP-66676.cif,0.0,0.0,mBJ,0.0,-0.0816,,F-43m
JVASP-69188,Ba2TiBi,FAILED_JVASP-69188.cif,0.0,0.0,mBJ,0.0,0.00288,,Fm-3m
JVASP-66644,Ba4TlTc,FAILED_JVASP-66644.cif,0.0,0.0,mBJ,0.0,1.00504,,F-43m
JVASP-48888,Li3VF6,FAILED_JVASP-48888.cif,0.03,0.0,mBJ,-0.03,-3.07602,,P2_1/c
JVASP-69068,BaYPd2,FAILED_JVASP-69068.cif,0.0,0.0,mBJ,0.0,-0.53072,,P4/mmm
JVASP-62200,Fe5SiB2,FAILED_JVASP-62200.cif,0.0,0.0,mBJ,0.0,-0.31327,,I4/mcm
JVASP-5275,K3AlH6,FAILED_JVASP-5275.cif,2.112,4.512,mBJ,2.4,-0.2708,,I4/mmm
JVASP-66206,Ba4HfTi,FAILED_JVASP-66206.cif,0.0,0.0,mBJ,0.0,1.20538,,F-43m
JVASP-66035,BaScCl,FAILED_JVASP-66035.cif,0.0,0.0,mBJ,0.0,0.06571,,F-43m
JVASP-67581,NaBePt2,FAILED_JVASP-67581.cif,0.0,0.0,mBJ,0.0,-0.21636,,P4mm
JVASP-17254,Cu2SnSe4,FAILED_JVASP-17254.cif,0.0,0.0,mBJ,0.0,-0.19187,,I-42m
JVASP-67656,BeNbPb,FAILED_JVASP-67656.cif,0.0,0.0,mBJ,0.0,0.48673,,I4mm
JVASP-61919,SrCu2B2O6,FAILED_JVASP-61919.cif,0.003,0.0,mBJ,-0.003,-2.04861,,I-42m
JVASP-48337,LiMn2O2F3,FAILED_JVASP-48337.cif,0.0,0.0,mBJ,0.0,-2.32399,,C2/m
JVASP-66789,TiBeTl,FAILED_JVASP-66789.cif,0.0,0.0,mBJ,0.0,0.32002,,I4mm
JVASP-85500,EuH3O3,FAILED_JVASP-85500.cif,3.773,6.121,mBJ,2.348,-2.04345,,P6_3/m
JVASP-62838,DyVB4,FAILED_JVASP-62838.cif,0.0,0.0,mBJ,0.0,-0.72504,,Pbam
JVASP-45925,Li2Mn3GaO8,FAILED_JVASP-45925.cif,0.0,0.0,mBJ,0.0,-2.03525,,R-3m
JVASP-53573,KBi2F7,FAILED_JVASP-53573.cif,4.477,6.374,mBJ,1.897,-2.62698,,P1
JVASP-91819,NaGaTe2,FAILED_JVASP-91819.cif,1.345,2.462,mBJ,1.117,-0.58965,,I-42d
JVASP-86331,CaGe2,FAILED_JVASP-86331.cif,0.0,0.0,mBJ,0.0,-0.55685,,R-3m
JVASP-67698,BeCrSi,FAILED_JVASP-67698.cif,0.0,0.0,mBJ,0.0,0.29044,,I4mm
JVASP-68474,BeFeSb,FAILED_JVASP-68474.cif,0.0,0.337,mBJ,0.337,0.23793,,I4mm
JVASP-66677,Ba4GeRh,FAILED_JVASP-66677.cif,0.0,0.0,mBJ,0.0,0.661,,F-43m
JVASP-68354,MnBe2In,FAILED_JVASP-68354.cif,0.0,0.0,mBJ,0.0,0.26246,,P4/mmm
JVASP-3417,BaPbF6,FAILED_JVASP-3417.cif,2.849,4.345,mBJ,1.496,-2.82521,,R-3m
JVASP-4744,TlNi,FAILED_JVASP-4744.cif,0.0,0.0,mBJ,0.0,0.20965,,P6_3/mmc
JVASP-14258,BaF2,FAILED_JVASP-14258.cif,5.865,6.876,mBJ,1.011,-3.97981,,P6_3/mmc
JVASP-18889,ZrO,FAILED_JVASP-18889.cif,0.0,0.13,mBJ,0.13,-2.3878,,F-43m
JVASP-87975,RbClO4,FAILED_JVASP-87975.cif,6.028,8.99,mBJ,2.962,-0.65183,,Pnma
JVASP-67782,BeGaTe,FAILED_JVASP-67782.cif,0.0,0.0,mBJ,0.0,0.34155,,I4mm
JVASP-63137,CaGa2As2,FAILED_JVASP-63137.cif,0.187,0.517,mBJ,0.33,-0.68111,,R-3m
JVASP-91773,SnO,FAILED_JVASP-91773.cif,1.64,2.674,mBJ,1.034,-1.31191,,Cmc2_1
JVASP-61150,HgAs2O6,FAILED_JVASP-61150.cif,0.741,2.428,mBJ,1.687,-1.04157,,P-31m
JVASP-1708,RbNdSe2,FAILED_JVASP-1708.cif,1.864,2.804,mBJ,0.94,-1.83127,,R-3m
JVASP-3195,NdSeF,FAILED_JVASP-3195.cif,1.037,1.828,mBJ,0.791,-3.05269,,P4/nmm
JVASP-66791,MnBe2Sn,FAILED_JVASP-66791.cif,0.0,0.0,mBJ,0.0,0.28965,,P4/mmm
JVASP-91924,TmAgTe2,FAILED_JVASP-91924.cif,0.908,1.29,mBJ,0.382,-0.9019,,P-42_1m
JVASP-68228,ScBeV2,FAILED_JVASP-68228.cif,0.0,0.0,mBJ,0.0,0.22543,,I-4m2
JVASP-67120,TiBe2Cr,FAILED_JVASP-67120.cif,0.0,0.0,mBJ,0.0,0.07159,,P4mm
JVASP-66966,BeNbRh,FAILED_JVASP-66966.cif,0.0,0.0,mBJ,0.0,-0.36481,,I4mm
JVASP-86810,Rb3Bi,FAILED_JVASP-86810.cif,0.0,0.72,mBJ,0.72,-0.42597,,P6_3/mmc
JVASP-85413,MgWO4,FAILED_JVASP-85413.cif,2.826,3.877,mBJ,1.051,-2.66727,,P2/c
JVASP-68296,KTa2Be,FAILED_JVASP-68296.cif,0.0,0.0,mBJ,0.0,1.38302,,F-43m
JVASP-69189,Ba2YZn,FAILED_JVASP-69189.cif,0.0,0.0,mBJ,0.0,0.20434,,Fm-3m
JVASP-66678,BaNaMo,FAILED_JVASP-66678.cif,0.0,0.0,mBJ,0.0,1.63919,,F-43m
JVASP-69359,BaNa2Ca,FAILED_JVASP-69359.cif,0.0,0.0,mBJ,0.0,0.05002,,P4/mmm
JVASP-14852,YZn,FAILED_JVASP-14852.cif,0.0,0.0,mBJ,0.0,-0.15231,,Fm-3m
JVASP-2032,Ba2PCl,FAILED_JVASP-2032.cif,1.063,1.839,mBJ,0.776,-1.78961,,R-3m
JVASP-67356,BeNbRu,FAILED_JVASP-67356.cif,0.0,0.0,mBJ,0.0,-0.19549,,I4mm
JVASP-91975,CrCdF6,FAILED_JVASP-91975.cif,0.0,0.158,mBJ,0.158,-2.45898,,R-3
JVASP-67739,Be2ReTe,FAILED_JVASP-67739.cif,0.0,0.0,mBJ,0.0,0.65882,,P4/mmm
JVASP-86414,BaVS3,FAILED_JVASP-86414.cif,0.0,0.0,mBJ,0.0,-1.54332,,Cmc2_1
JVASP-15699,NpO,FAILED_JVASP-15699.cif,0.0,0.0,mBJ,0.0,-2.57466,,Fm-3m
JVASP-67908,TaBeW2,FAILED_JVASP-67908.cif,0.0,0.0,mBJ,0.0,-0.04785,,I-4m2
JVASP-89134,TlCdI3,FAILED_JVASP-89134.cif,2.053,2.913,mBJ,0.86,-0.62545,,Pnma
JVASP-66718,Be2FeIr,FAILED_JVASP-66718.cif,0.0,0.0,mBJ,0.0,-0.26528,,P4mm
JVASP-43213,Li2MnCuO4,FAILED_JVASP-43213.cif,0.0,0.0,mBJ,0.0,-1.6975,,I-4m2
JVASP-65355,BaSc2Nb,FAILED_JVASP-65355.cif,0.0,0.0,mBJ,0.0,0.29596,,P4/mmm
JVASP-5827,CuSe2Cl,FAILED_JVASP-5827.cif,0.551,0.503,mBJ,-0.048,-0.28854,,P2_1/c
JVASP-68475,BeNbPb2,FAILED_JVASP-68475.cif,0.0,0.0,mBJ,0.0,0.63873,,I-4m2
JVASP-68906,HfMgBe2,FAILED_JVASP-68906.cif,0.0,0.0,mBJ,0.0,0.14308,,P4/mmm
JVASP-90027,K2OsO6,FAILED_JVASP-90027.cif,0.0,0.0,mBJ,0.0,-1.0173,,I4/m
JVASP-14965,NiTe2,FAILED_JVASP-14965.cif,0.0,0.0,mBJ,0.0,-0.21349,,P-3m1
JVASP-22596,MnPtF6,FAILED_JVASP-22596.cif,0.0,0.0,mBJ,0.0,-1.69349,,R-3
JVASP-67442,BeNbNi,FAILED_JVASP-67442.cif,0.0,0.0,mBJ,0.0,-0.19537,,I4mm
JVASP-66967,MnBeTl,FAILED_JVASP-66967.cif,0.0,0.0,mBJ,0.0,0.74627,,P3m1
JVASP-66038,Ba4TaRh,FAILED_JVASP-66038.cif,0.0,0.0,mBJ,0.0,1.33708,,F-43m
JVASP-67583,NaBeIn,FAILED_JVASP-67583.cif,0.0,0.0,mBJ,0.0,0.37559,,I4mm
JVASP-68772,TiBe2Hg,FAILED_JVASP-68772.cif,0.0,0.0,mBJ,0.0,0.31401,,P4/mmm
JVASP-90886,InSiCN,FAILED_JVASP-90886.cif,1.9,2.726,mBJ,0.826,-0.10663,,Pmn2_1
JVASP-68178,BeRe2Bi,FAILED_JVASP-68178.cif,0.0,0.0,mBJ,0.0,0.96595,,I-4m2
JVASP-63144,CuBSe2,FAILED_JVASP-63144.cif,1.617,1.983,mBJ,0.366,-0.11821,,I-42d
JVASP-42261,TiVO4,FAILED_JVASP-42261.cif,0.0,1.916,mBJ,1.916,-2.8461,,I-4m2
JVASP-85340,KUCuSe3,FAILED_JVASP-85340.cif,0.0,0.0,mBJ,0.0,-1.11839,,Cmcm
JVASP-62847,HfCo3B2,FAILED_JVASP-62847.cif,0.0,0.0,mBJ,0.0,-0.5887,,R-3m
JVASP-66794,HfBeNi,FAILED_JVASP-66794.cif,0.0,0.0,mBJ,0.0,-0.23736,,I4mm
JVASP-68841,BeTe2Pd,FAILED_JVASP-68841.cif,0.0,0.0,mBJ,0.0,0.30547,,I-4m2
JVASP-14580,BMo2,FAILED_JVASP-14580.cif,0.0,0.0,mBJ,0.0,-0.28426,,I4/mcm
JVASP-5176,CuBr,FAILED_JVASP-5176.cif,1.012,1.877,mBJ,0.865,-0.25511,,P4/nmm
JVASP-66681,Ba4GeSe,FAILED_JVASP-66681.cif,0.0,0.0,mBJ,0.0,0.05178,,F-43m
JVASP-53451,FeSbO4,FAILED_JVASP-53451.cif,0.0,0.0,mBJ,0.0,-1.41829,,Cmmm
JVASP-28374,CN2,FAILED_JVASP-28374.cif,2.017,3.474,mBJ,1.457,0.82056,,P-3m1
JVASP-68236,BeCuRh2,FAILED_JVASP-68236.cif,0.0,0.0,mBJ,0.0,-0.0533,,I-4m2
JVASP-66896,ZrBeBi,FAILED_JVASP-66896.cif,0.0,0.0,mBJ,0.0,0.19679,,I4mm
JVASP-48892,Li2CrP2O8,FAILED_JVASP-48892.cif,0.0,0.0,mBJ,0.0,-2.26791,,P-3
JVASP-68417,Be2PdRh,FAILED_JVASP-68417.cif,0.0,0.0,mBJ,0.0,-0.64314,,P4/mmm
JVASP-73859,BeV2In,FAILED_JVASP-73859.cif,0.0,0.0,mBJ,0.0,0.16879,,P4mm
JVASP-92177,Si7Ge,FAILED_JVASP-92177.cif,0.486,1.07,mBJ,0.584,0.00846,,P-43m
JVASP-91820,BaCuSeO,FAILED_JVASP-91820.cif,0.0,0.0,mBJ,0.0,-1.337,,P4/nmm
JVASP-53575,Pr2PbS4,FAILED_JVASP-53575.cif,2.249,2.657,mBJ,0.408,-1.76638,,I-42d
JVASP-68361,BeCoPb2,FAILED_JVASP-68361.cif,0.0,0.0,mBJ,0.0,0.75523,,I-4m2
JVASP-67446,NaBeBr,FAILED_JVASP-67446.cif,0.424,0.94,mBJ,0.516,-0.09194,,P3m1
JVASP-86536,CrFeBi2O6,FAILED_JVASP-86536.cif,0.0,0.0,mBJ,0.0,-1.51591,,R3
JVASP-1711,RbSmSe2,FAILED_JVASP-1711.cif,1.869,2.968,mBJ,1.099,-1.83724,,R-3m
JVASP-1297,Na2Se,FAILED_JVASP-1297.cif,2.173,3.933,mBJ,1.76,-1.15601,,Fm-3m
JVASP-72866,TiBe2Cd,FAILED_JVASP-72866.cif,0.0,0.0,mBJ,0.0,0.17258,,Fm-3m
JVASP-86130,KHgC2IN2,FAILED_JVASP-86130.cif,2.523,3.703,mBJ,1.18,-0.05628,,Cmcm
JVASP-66682,BaCaCr,FAILED_JVASP-66682.cif,0.0,0.0,mBJ,0.0,1.11305,,F-43m
JVASP-14853,SrGa2,FAILED_JVASP-14853.cif,0.0,0.0,mBJ,0.0,-0.55752,,P6/mmm
JVASP-66724,BeGaIr,FAILED_JVASP-66724.cif,0.0,0.0,mBJ,0.0,-0.38386,,I4mm
JVASP-68712,BeGeTe2,FAILED_JVASP-68712.cif,0.0,0.0,mBJ,0.0,0.47363,,I-4m2
JVASP-15309,DySi2Ir2,FAILED_JVASP-15309.cif,0.0,0.0,mBJ,0.0,-1.03129,,I4/mmm
JVASP-62212,Er2Au,FAILED_JVASP-62212.cif,0.0,0.0,mBJ,0.0,-0.69781,,Pnma
JVASP-68363,BeInW,FAILED_JVASP-68363.cif,0.0,0.0,mBJ,0.0,0.45316,,P3m1
JVASP-1882,ErN,FAILED_JVASP-1882.cif,0.238,1.203,mBJ,0.965,-2.01006,,Fm-3m
JVASP-68297,BeCoP2,FAILED_JVASP-68297.cif,0.0,0.0,mBJ,0.0,0.28086,,I-4m2
JVASP-67860,BeSnCl,FAILED_JVASP-67860.cif,0.0,0.0,mBJ,0.0,0.07085,,I4mm
JVASP-91776,K3Mn,FAILED_JVASP-91776.cif,0.0,0.0,mBJ,0.0,0.64857,,I4/mcm
JVASP-91925,NbCu3S4,FAILED_JVASP-91925.cif,1.64,1.568,mBJ,-0.072,-0.63459,,P-43m
JVASP-85691,Na2HfH6O6,FAILED_JVASP-85691.cif,4.758,7.322,mBJ,2.564,-1.7406,,R-3
JVASP-87331,SbIrS,FAILED_JVASP-87331.cif,1.06,1.369,mBJ,0.309,-0.50734,,Pca2_1
JVASP-67909,BeFe2Cu,FAILED_JVASP-67909.cif,0.0,0.0,mBJ,0.0,0.06851,,I-4m2
JVASP-63813,Na2BiAu,FAILED_JVASP-63813.cif,0.427,0.952,mBJ,0.525,-0.40764,,Cmcm
JVASP-3897,RhBr3,FAILED_JVASP-3897.cif,1.167,1.316,mBJ,0.149,-0.45002,,C2/m
JVASP-62553,NaCaBe2B2O6F,FAILED_JVASP-62553.cif,5.396,8.152,mBJ,2.756,-2.94871,,Cc
JVASP-66042,Ba4CuOs,FAILED_JVASP-66042.cif,0.0,0.0,mBJ,0.0,1.2364,,F-43m
JVASP-61446,Ho2Al3Co14,FAILED_JVASP-61446.cif,0.0,0.0,mBJ,0.0,-0.23796,,P6_3/mmc
JVASP-86333,Th2Cu,FAILED_JVASP-86333.cif,0.0,0.0,mBJ,0.0,-0.12139,,I4/mcm
JVASP-91546,BaCdPF,FAILED_JVASP-91546.cif,1.048,1.947,mBJ,0.899,-1.93402,,P4/nmm
JVASP-12038,AlHO2,FAILED_JVASP-12038.cif,5.168,6.64,HSE,1.472,-2.43011,,P2_1/m
JVASP-85501,MoH2O4,FAILED_JVASP-85501.cif,2.761,3.26,mBJ,0.499,-1.57548,,P1
JVASP-90840,ScFeC2,FAILED_JVASP-90840.cif,0.0,0.0,mBJ,0.0,-0.36047,,P4/nmm
JVASP-67538,ScBeV,FAILED_JVASP-67538.cif,0.0,0.0,mBJ,0.0,0.16627,,I4mm
JVASP-67276,Be2NiPt,FAILED_JVASP-67276.cif,0.0,0.0,mBJ,0.0,-0.4129,,P4mm
JVASP-20062,PrPt2,FAILED_JVASP-20062.cif,0.0,0.0,mBJ,0.0,-1.06048,,Fd-3m
JVASP-68116,BeV2Pt,FAILED_JVASP-68116.cif,0.0,0.0,mBJ,0.0,-0.1997,,I-4m2
JVASP-66970,BeSiCl,FAILED_JVASP-66970.cif,0.0,0.0,mBJ,0.0,-0.01954,,P3m1
JVASP-68774,Be2MoW,FAILED_JVASP-68774.cif,0.0,0.0,mBJ,0.0,0.16077,,P4mm
JVASP-14260,RbVP2S7,FAILED_JVASP-14260.cif,0.024,0.0,mBJ,-0.024,-0.65173,,C2
JVASP-67819,BeGaSb,FAILED_JVASP-67819.cif,0.0,0.0,mBJ,0.0,0.44216,,I4mm
JVASP-62989,KBe2BO3F2,FAILED_JVASP-62989.cif,6.556,9.836,mBJ,3.28,-3.03766,,R32
JVASP-68541,Na2BeFe,FAILED_JVASP-68541.cif,0.0,0.0,mBJ,0.0,0.37908,,P4mm
JVASP-65360,BaNbCr2,FAILED_JVASP-65360.cif,0.0,0.0,mBJ,0.0,1.37181,,P4/mmm
JVASP-68237,BeCdFe2,FAILED_JVASP-68237.cif,0.0,0.0,mBJ,0.0,0.32922,,F-43m
JVASP-68846,NaY2Be,FAILED_JVASP-68846.cif,0.0,0.0,mBJ,0.0,0.45772,,I-4m2
JVASP-67623,SrScBe,FAILED_JVASP-67623.cif,0.0,0.0,mBJ,0.0,0.24298,,I4mm
JVASP-73977,BeTc2Mo,FAILED_JVASP-73977.cif,0.0,0.0,mBJ,0.0,0.04848,,P4mm
JVASP-67705,KHfBe,FAILED_JVASP-67705.cif,0.0,0.0,mBJ,0.0,0.57917,,I4mm
JVASP-68481,Be2GaOs,FAILED_JVASP-68481.cif,0.0,0.0,mBJ,0.0,-0.12574,,P4/mmm
JVASP-15482,YbSi2Pt2,FAILED_JVASP-15482.cif,0.0,0.0,mBJ,0.0,-0.92479,,I4/mmm
JVASP-43466,Li2Fe3SbO8,FAILED_JVASP-43466.cif,0.059,0.0,mBJ,-0.059,-1.65317,,R-3m
JVASP-86307,LiSi,FAILED_JVASP-86307.cif,0.157,0.469,mBJ,0.312,-0.06439,,I4_1/a
JVASP-68717,ZrBeBr,FAILED_JVASP-68717.cif,0.0,0.372,mBJ,0.372,-0.08827,,P3m1
JVASP-68911,Y2BeCl,FAILED_JVASP-68911.cif,0.0,0.0,mBJ,0.0,-0.26151,,I-4m2
JVASP-18741,MgNi2Sb,FAILED_JVASP-18741.cif,0.0,0.0,mBJ,0.0,-0.22472,,Fm-3m
JVASP-92178,ZrSn,FAILED_JVASP-92178.cif,0.0,0.0,mBJ,0.0,-0.38848,,Pnma
JVASP-68298,NaBeSi2,FAILED_JVASP-68298.cif,0.0,0.0,mBJ,0.0,0.57413,,I-4m2
JVASP-60751,P2WO8,FAILED_JVASP-60751.cif,2.025,2.995,mBJ,0.97,-2.21357,,C2/m
JVASP-68652,BeBiBr2,FAILED_JVASP-68652.cif,0.0,0.0,mBJ,0.0,0.41835,,I-4m2
JVASP-73870,TaBeV2,FAILED_JVASP-73870.cif,0.0,0.0,mBJ,0.0,0.01341,,P4mm
JVASP-66044,Ba4HfTc,FAILED_JVASP-66044.cif,0.0,0.0,mBJ,0.0,1.47259,,F-43m
JVASP-43369,AgPO3,FAILED_JVASP-43369.cif,2.138,3.321,mBJ,1.183,-1.60073,,P2_1/c
JVASP-4298,SN,FAILED_JVASP-4298.cif,2.721,3.7,HSE,0.979,0.65746,,P2_1/c
JVASP-67706,MgBeRe2,FAILED_JVASP-67706.cif,0.0,0.0,mBJ,0.0,0.04459,,P4mm
JVASP-1717,TbRbSe2,FAILED_JVASP-1717.cif,1.914,2.96,mBJ,1.046,-1.8439,,R-3m
JVASP-63504,KAuF6,FAILED_JVASP-63504.cif,1.999,2.14,mBJ,0.141,-1.60334,,R-3m
JVASP-67786,MnBeTl,FAILED_JVASP-67786.cif,0.0,0.0,mBJ,0.0,0.55479,,I4mm
JVASP-67743,MgBeRu2,FAILED_JVASP-67743.cif,0.0,0.0,mBJ,0.0,0.06263,,F-43m
JVASP-15265,ErBRh3,FAILED_JVASP-15265.cif,0.0,0.0,mBJ,0.0,-0.81833,,Pm-3m
JVASP-68914,BeBiTe2,FAILED_JVASP-68914.cif,0.0,0.0,mBJ,0.0,0.57453,,I-4m2
JVASP-62993,Li3AuO3,FAILED_JVASP-62993.cif,2.017,2.419,mBJ,0.402,-1.55911,,P4_2/mnm
JVASP-66045,Ba4TcW,FAILED_JVASP-66045.cif,0.0,0.0,mBJ,0.0,1.75109,,F-43m
JVASP-50345,BaMgO2,FAILED_JVASP-50345.cif,3.392,5.413,mBJ,2.021,-2.81832,,P3_121
JVASP-86182,Ag2Se,FAILED_JVASP-86182.cif,0.074,0.145,mBJ,0.071,-0.06499,,P2_12_12_1
JVASP-74056,BeV2Tc,FAILED_JVASP-74056.cif,0.0,0.0,mBJ,0.0,-0.15259,,P4mm
JVASP-62662,NaBH8N2,FAILED_JVASP-62662.cif,5.388,7.675,mBJ,2.287,-0.21964,,P2_1/c
JVASP-67368,Be2CrIr,FAILED_JVASP-67368.cif,0.0,0.0,mBJ,0.0,-0.22724,,P4mm
JVASP-14557,NbRh3,FAILED_JVASP-14557.cif,0.0,0.0,mBJ,0.0,-0.51316,,Pm-3m
JVASP-67052,BeSnBi,FAILED_JVASP-67052.cif,0.0,0.0,mBJ,0.0,0.43801,,I4mm
JVASP-67624,BeInOs2,FAILED_JVASP-67624.cif,0.0,0.0,mBJ,0.0,0.19701,,P4mm
JVASP-67863,BeTlSe,FAILED_JVASP-67863.cif,0.0,0.0,mBJ,0.0,-0.0337,,I4mm
JVASP-73473,NaTiBe2,FAILED_JVASP-73473.cif,0.0,0.0,mBJ,0.0,0.59277,,Fm-3m
JVASP-85961,MnClO3,FAILED_JVASP-85961.cif,1.721,2.095,mBJ,0.374,-1.00917,,Cmc2_1
JVASP-85754,AlSeCl7,FAILED_JVASP-85754.cif,0.084,0.0,mBJ,-0.084,-0.7854,,P1
JVASP-67543,LiBeSi,FAILED_JVASP-67543.cif,0.0,0.0,mBJ,0.0,0.18847,,I4mm
JVASP-90417,ICl3,FAILED_JVASP-90417.cif,1.455,3.148,mBJ,1.693,-0.18571,,P-1
JVASP-67456,MgZrBe2,FAILED_JVASP-67456.cif,0.0,0.0,mBJ,0.0,0.12113,,P4/mmm
JVASP-66047,Ba2CoBr,FAILED_JVASP-66047.cif,0.0,0.0,mBJ,0.0,-0.41103,,Fm-3m
JVASP-43396,SrNb3NO7,FAILED_JVASP-43396.cif,1.514,1.847,mBJ,0.333,-2.58805,,Cm
JVASP-68043,BeCoPd2,FAILED_JVASP-68043.cif,0.0,0.0,mBJ,0.0,-0.03357,,I-4m2
JVASP-68915,TaBeSb,FAILED_JVASP-68915.cif,0.0,0.0,mBJ,0.0,0.53957,,P3m1
JVASP-62561,ZrBRh3,FAILED_JVASP-62561.cif,0.0,0.0,mBJ,0.0,-0.73709,,Pm-3m
JVASP-63350,ErCo2B2,FAILED_JVASP-63350.cif,0.0,0.0,mBJ,0.0,-0.61016,,I4/mmm
JVASP-43806,V5O12,FAILED_JVASP-43806.cif,0.119,2.088,mBJ,1.969,-2.38143,,P1
JVASP-67744,ZrBeHg,FAILED_JVASP-67744.cif,0.0,0.0,mBJ,0.0,0.10265,,I4mm
JVASP-66732,ScBe2Rh,FAILED_JVASP-66732.cif,0.0,0.0,mBJ,0.0,-0.40566,,P4/mmm
JVASP-67977,BeFeHg2,FAILED_JVASP-67977.cif,0.0,0.0,mBJ,0.0,0.47144,,P4mm
JVASP-67917,LiBeV2,FAILED_JVASP-67917.cif,0.0,0.0,mBJ,0.0,0.35642,,I-4m2
JVASP-67056,BeCuSb,FAILED_JVASP-67056.cif,0.0,0.0,mBJ,0.0,0.45342,,P3m1
JVASP-66977,MnBe2Te,FAILED_JVASP-66977.cif,0.0,0.0,mBJ,0.0,0.48133,,P4mm
JVASP-63679,Er3Sb4Au3,FAILED_JVASP-63679.cif,0.613,0.659,mBJ,0.046,-0.78846,,I-43d
JVASP-18579,Ho6FeBi2,FAILED_JVASP-18579.cif,0.0,0.0,mBJ,0.0,-0.44869,,P-62m
JVASP-68240,BeCrRh2,FAILED_JVASP-68240.cif,0.0,0.0,mBJ,0.0,-0.13172,,I-4m2
JVASP-67588,ScBeRh,FAILED_JVASP-67588.cif,0.0,0.0,mBJ,0.0,-0.61358,,P-6m2
JVASP-66910,TiBe2Sb,FAILED_JVASP-66910.cif,0.0,0.0,mBJ,0.0,0.27898,,P4mm
JVASP-73875,BeCdCo2,FAILED_JVASP-73875.cif,0.0,0.0,mBJ,0.0,0.1113,,P4mm
JVASP-68126,BeP2Os,FAILED_JVASP-68126.cif,0.0,0.0,mBJ,0.0,0.47038,,I-4m2
JVASP-67625,BeTeIr,FAILED_JVASP-67625.cif,0.0,0.0,mBJ,0.0,0.09845,,I4mm
JVASP-72942,MgBe2Pd,FAILED_JVASP-72942.cif,0.0,0.0,mBJ,0.0,-0.20774,,Fm-3m
JVASP-68186,BePdRh2,FAILED_JVASP-68186.cif,0.0,0.0,mBJ,0.0,-0.1048,,I-4m2
JVASP-67545,BeNiIr,FAILED_JVASP-67545.cif,0.0,0.0,mBJ,0.0,-0.27628,,I4mm
JVASP-22709,MgAs4,FAILED_JVASP-22709.cif,0.84,1.382,mBJ,0.542,-0.2467,,P4_12_12
JVASP-28375,HoSI,FAILED_JVASP-28375.cif,2.57,3.43,HSE,0.86,-1.89487,,Pmmn
JVASP-91548,HC,FAILED_JVASP-91548.cif,5.13,6.41,mBJ,1.28,0.1523,,I2_13
JVASP-67371,BePIr,FAILED_JVASP-67371.cif,0.0,0.0,mBJ,0.0,0.04288,,I4mm
JVASP-68044,Hf2BeCu,FAILED_JVASP-68044.cif,0.0,0.0,mBJ,0.0,-0.03845,,P4mm
JVASP-67282,Be2CrHg,FAILED_JVASP-67282.cif,0.0,0.0,mBJ,0.0,0.45679,,P4/mmm
JVASP-67213,MgBeRh,FAILED_JVASP-67213.cif,0.0,0.0,mBJ,0.0,-0.46798,,I4mm
JVASP-5833,As8S9,FAILED_JVASP-5833.cif,1.504,2.307,mBJ,0.803,-0.15341,,P2/c
JVASP-68424,SrBeCl,FAILED_JVASP-68424.cif,0.0,1.512,mBJ,1.512,-0.35909,,P3m1
JVASP-68854,BeGaOs,FAILED_JVASP-68854.cif,0.0,0.0,mBJ,0.0,0.19588,,P3m1
JVASP-85343,Eu2CN2Cl2,FAILED_JVASP-85343.cif,0.0,0.0,mBJ,0.0,-1.34363,,C2/m
JVASP-73553,Be2ZnRh,FAILED_JVASP-73553.cif,0.0,0.0,mBJ,0.0,-0.32382,,P4/mmm
JVASP-68723,BeZn2Cl,FAILED_JVASP-68723.cif,0.0,0.0,mBJ,0.0,0.32852,,I-4m2
JVASP-14794,CrC,FAILED_JVASP-14794.cif,0.0,0.0,mBJ,0.0,0.0961,,Fm-3m
JVASP-67978,BeSi2Ir,FAILED_JVASP-67978.cif,0.0,0.0,mBJ,0.0,0.10969,,I-4m2
JVASP-1720,RbHoSe2,FAILED_JVASP-1720.cif,1.942,2.969,mBJ,1.027,-1.83936,,R-3m
JVASP-42341,Ca3WO6,FAILED_JVASP-42341.cif,3.328,4.271,mBJ,0.943,-3.11874,,R-3
JVASP-62678,B2O3,FAILED_JVASP-62678.cif,6.541,9.188,mBJ,2.647,-2.53251,,P3_121
JVASP-87081,Hf2Ni,FAILED_JVASP-87081.cif,0.0,0.0,mBJ,0.0,-0.36386,,I4/mcm
JVASP-68659,TiBeBi,FAILED_JVASP-68659.cif,0.0,0.0,mBJ,0.0,0.55061,,P3m1
JVASP-63271,KAuC2N2,FAILED_JVASP-63271.cif,2.436,2.976,mBJ,0.54,-0.14138,,R-3
JVASP-67372,Be2FePd,FAILED_JVASP-67372.cif,0.0,0.0,mBJ,0.0,-0.14852,,P4mm
JVASP-91686,InSe,FAILED_JVASP-91686.cif,0.163,1.359,mBJ,1.196,-0.50597,,P-6m2
JVASP-66980,BeNbIn,FAILED_JVASP-66980.cif,0.0,0.0,mBJ,0.0,0.24342,,I4mm
JVASP-48017,FeOF,FAILED_JVASP-48017.cif,0.0,0.0,mBJ,0.0,-1.72093,,Pmn2_1
JVASP-68549,Zr2BePb,FAILED_JVASP-68549.cif,0.0,0.0,mBJ,0.0,0.06836,,I-4m2
JVASP-68490,K2Be2Co,FAILED_JVASP-68490.cif,0.0,0.0,mBJ,0.0,0.9551,,I4/mmm
JVASP-74164,BeV2Cr,FAILED_JVASP-74164.cif,0.0,0.0,mBJ,0.0,0.00597,,P4mm
JVASP-67666,Ti2BeSb,FAILED_JVASP-67666.cif,0.0,0.0,mBJ,0.0,-0.04342,,P4mm
JVASP-63006,MgB2C2,FAILED_JVASP-63006.cif,1.445,2.404,mBJ,0.959,-0.2349,,Pnnm
JVASP-67283,Be2FeHg,FAILED_JVASP-67283.cif,0.0,0.0,mBJ,0.0,0.38224,,P4mm
JVASP-21214,H,FAILED_JVASP-21214.cif,8.619,13.581,mBJ,4.962,0.00073,,P6_3/mmc
JVASP-75490,ZrMoAs,FAILED_JVASP-75490.cif,0.0,0.0,mBJ,0.0,0.2237,,F-43m
JVASP-68241,MgMn2Be,FAILED_JVASP-68241.cif,0.0,0.0,mBJ,0.0,0.20803,,F-43m
JVASP-22599,HfVF6,FAILED_JVASP-22599.cif,0.0,2.082,mBJ,2.082,-3.25255,,Fm-3m