material_id,formula,cif_path,pbe_bandgap,hse_bandgap,gap_type,correction,formation_energy,total_energy,spacegroup
JVASP-19907,AlB2,FAILED_JVASP-19907.cif,0.0,0.0,mBJ,0.0,-0.0406,,P6/mmm
JVASP-16026,SrPuO4,FAILED_JVASP-16026.cif,0.0,0.0,mBJ,0.0,-3.08069,,R-3m
JVASP-15044,TiBe2,FAILED_JVASP-15044.cif,0.0,0.0,mBJ,0.0,-0.18051,,Fd-3m
JVASP-14816,Ti,FAILED_JVASP-14816.cif,0.0,0.0,mBJ,0.0,0.11264,,Im-3m
JVASP-105720,BaBr3,FAILED_JVASP-105720.cif,0.0,0.0,mBJ,0.0,-1.57654,,P6_3/mmc
JVASP-99471,Li2TlSb,FAILED_JVASP-99471.cif,0.628,0.53,mBJ,-0.098,-0.45137,,Fm-3m
JVASP-15824,LiVS2,FAILED_JVASP-15824.cif,0.0,0.0,mBJ,0.0,-1.21286,,P-3m1
JVASP-74845,BeIn2Sb,FAILED_JVASP-74845.cif,0.0,0.0,mBJ,0.0,0.48718,,I-4m2
JVASP-18469,Na3Bi,FAILED_JVASP-18469.cif,0.0,0.578,mBJ,0.578,-0.43808,,P6_3/mmc
JVASP-15196,YSi2Cu2,FAILED_JVASP-15196.cif,0.0,0.0,mBJ,0.0,-0.56551,,I4/mmm
JVASP-1744,KNdTe2,FAILED_JVASP-1744.cif,1.255,1.81,mBJ,0.555,-1.48727,,R-3m
JVASP-108043,ZnCdS2,FAILED_JVASP-108043.cif,1.205,2.602,mBJ,1.397,-0.75451,,P3m1
JVASP-28380,NdCoP,FAILED_JVASP-28380.cif,0.0,0.0,mBJ,0.0,-0.90828,,P4/nmm
JVASP-28409,Te2Mo,FAILED_JVASP-28409.cif,1.228,1.229,mBJ,0.001,-0.151,,P-6m2
JVASP-14817,Rh,FAILED_JVASP-14817.cif,0.0,0.0,mBJ,0.0,0.0,,Fm-3m
JVASP-3738,SrHBr,FAILED_JVASP-3738.cif,4.074,4.85,HSE,0.776,-1.53332,,P4/nmm
JVASP-14648,Cu,FAILED_JVASP-14648.cif,0.0,0.0,mBJ,0.0,0.0,,Fm-3m
JVASP-14975,NdN,FAILED_JVASP-14975.cif,0.0,0.712,mBJ,0.712,-1.56832,,Fm-3m
JVASP-106089,ErPaO4,FAILED_JVASP-106089.cif,3.088,3.066,mBJ,-0.022,-4.01057,,P4/mmm
JVASP-105942,MnCo3C,FAILED_JVASP-105942.cif,0.0,0.0,mBJ,0.0,0.08551,,Pm-3m
JVASP-3639,PrBr3,FAILED_JVASP-3639.cif,3.526,4.525,mBJ,0.999,-1.99646,,P6_3/m
JVASP-107955,MgHgPd2,FAILED_JVASP-107955.cif,0.0,0.0,mBJ,0.0,-0.41934,,Fm-3m
JVASP-52824,ScF3,FAILED_JVASP-52824.cif,4.701,5.997,mBJ,1.296,-3.69217,,C2
JVASP-18415,TmH2,FAILED_JVASP-18415.cif,0.0,0.039,mBJ,0.039,-0.74184,,Fm-3m
JVASP-105721,Ba3Sm,FAILED_JVASP-105721.cif,0.0,0.0,mBJ,0.0,0.19058,,I4/mmm
JVASP-95568,Rb2MgH4,FAILED_JVASP-95568.cif,3.469,5.257,mBJ,1.788,-0.353,,Cmcm
JVASP-99374,Ho2ZnHg,FAILED_JVASP-99374.cif,0.0,0.0,mBJ,0.0,-0.3688,,Fm-3m
JVASP-105680,Rb2NaPrF6,FAILED_JVASP-105680.cif,6.595,9.141,mBJ,2.546,-3.41529,,Fm-3m
JVASP-54439,FeB2W2,FAILED_JVASP-54439.cif,0.0,0.0,mBJ,0.0,-0.55503,,P4/mbm
JVASP-15198,UTeN,FAILED_JVASP-15198.cif,0.0,0.0,mBJ,0.0,-1.35005,,P4/nmm
JVASP-18624,USnAu2,FAILED_JVASP-18624.cif,0.0,0.0,mBJ,0.0,-0.27252,,Fm-3m
JVASP-99472,Mg3Os,FAILED_JVASP-99472.cif,0.0,0.0,mBJ,0.0,0.09425,,P6_3/mmc
JVASP-106013,PrHo,FAILED_JVASP-106013.cif,0.0,0.0,mBJ,0.0,0.04253,,P-6m2
JVASP-3171,RbUO3,FAILED_JVASP-3171.cif,0.528,2.779,mBJ,2.251,-3.14635,,Pm-3m
JVASP-99655,MnNiSe2,FAILED_JVASP-99655.cif,0.0,0.0,mBJ,0.0,-0.29373,,P-3m1
JVASP-21201,F,FAILED_JVASP-21201.cif,2.299,3.609,mBJ,1.31,0.00607,,C2/m
JVASP-106090,Er2Se3,FAILED_JVASP-106090.cif,0.28,0.925,mBJ,0.645,-1.89835,,P-4m2
JVASP-91239,RbAsOF4,FAILED_JVASP-91239.cif,3.716,5.512,mBJ,1.796,-2.31379,,P2_1/c
JVASP-3174,Ca3PN,FAILED_JVASP-3174.cif,0.821,1.549,mBJ,0.728,-1.22284,,Pm-3m
JVASP-108052,VPt,FAILED_JVASP-108052.cif,0.0,0.0,mBJ,0.0,-0.31639,,R-3m
JVASP-106172,CrP2O7,FAILED_JVASP-106172.cif,0.0,0.0,mBJ,0.0,-2.11602,,C2
JVASP-3321,ZnGa2Te4,FAILED_JVASP-3321.cif,0.99,1.741,mBJ,0.751,-0.37016,,I-4
JVASP-96809,NaMnF3,FAILED_JVASP-96809.cif,1.609,1.669,mBJ,0.06,-2.63437,,Pnma
JVASP-99610,MgNi3B,FAILED_JVASP-99610.cif,0.0,0.0,mBJ,0.0,-0.28327,,Pm-3m
JVASP-108154,Ca4GaSi3,FAILED_JVASP-108154.cif,0.0,0.0,mBJ,0.0,-0.61146,,Pmm2
JVASP-107957,MgScAu2,FAILED_JVASP-107957.cif,0.0,0.0,mBJ,0.0,-0.82548,,Fm-3m
JVASP-18416,VH2,FAILED_JVASP-18416.cif,0.0,0.0,mBJ,0.0,-0.2017,,Fm-3m
JVASP-16099,Ta2Se,FAILED_JVASP-16099.cif,0.0,0.0,mBJ,0.0,-0.44547,,P4/nmm
JVASP-105722,Ba3Pm,FAILED_JVASP-105722.cif,0.0,0.0,mBJ,0.0,0.1827,,I4/mmm
JVASP-1990,CoCl2,FAILED_JVASP-1990.cif,0.0,0.0,HSE,0.0,-0.56716,,R-3m
JVASP-55136,Fe3PtN,FAILED_JVASP-55136.cif,0.0,0.0,mBJ,0.0,-0.21956,,Pm-3m
JVASP-3741,BaHBr,FAILED_JVASP-3741.cif,3.417,4.435,mBJ,1.018,-1.55781,,P4/nmm
JVASP-105681,Rb2AlInI6,FAILED_JVASP-105681.cif,1.085,1.138,mBJ,0.053,-0.95346,,Fm-3m
JVASP-14157,SrFe2As2,FAILED_JVASP-14157.cif,0.0,0.0,mBJ,0.0,-0.58403,,I4/mmm
JVASP-15356,SmSnAu,FAILED_JVASP-15356.cif,0.0,0.0,mBJ,0.0,-0.8528,,P6_3mc
JVASP-14747,ThS,FAILED_JVASP-14747.cif,0.0,0.0,mBJ,0.0,-1.96301,,Fm-3m
JVASP-1771,TmAgTe2,FAILED_JVASP-1771.cif,0.701,1.257,mBJ,0.556,-0.88959,,P-3m1
JVASP-95090,SrLiFeF6,FAILED_JVASP-95090.cif,0.0,0.0,mBJ,0.0,-2.9993,,P2_1/c
JVASP-19889,NbC,FAILED_JVASP-19889.cif,0.0,0.0,mBJ,0.0,-0.52754,,Fm-3m
JVASP-95767,EuF3,FAILED_JVASP-95767.cif,8.097,9.426,mBJ,1.329,-4.36569,,Pnma
JVASP-99475,Rb2AgAsF6,FAILED_JVASP-99475.cif,2.376,3.754,mBJ,1.378,-2.30169,,Fm-3m
JVASP-14818,Nb,FAILED_JVASP-14818.cif,0.0,0.0,mBJ,0.0,0.0,,Im-3m
JVASP-18446,Cr2NiS4,FAILED_JVASP-18446.cif,0.0,0.0,mBJ,0.0,-0.64327,,C2/m
JVASP-17350,AlBiO3,FAILED_JVASP-17350.cif,0.0,0.0,mBJ,0.0,-0.63997,,Pm-3m
JVASP-15199,USi2Pt2,FAILED_JVASP-15199.cif,0.0,0.0,mBJ,0.0,-0.63858,,I4/mmm
JVASP-3945,Ca3AsCl3,FAILED_JVASP-3945.cif,1.713,2.469,mBJ,0.756,-2.13724,,Pm-3m
JVASP-99426,LiPr2Rh,FAILED_JVASP-99426.cif,0.0,0.0,mBJ,0.0,-0.33221,,Fm-3m
JVASP-99375,Li2CaTl,FAILED_JVASP-99375.cif,0.0,0.0,mBJ,0.0,-0.28355,,Fm-3m
JVASP-15563,U2PN2,FAILED_JVASP-15563.cif,0.0,0.01,mBJ,0.01,-1.52425,,P-3m1
JVASP-99656,Mg6SiGe2,FAILED_JVASP-99656.cif,0.376,0.643,mBJ,0.267,-0.30283,,Immm
JVASP-99567,K2CuMoI6,FAILED_JVASP-99567.cif,0.188,0.644,mBJ,0.456,-0.60325,,Fm-3m
JVASP-3207,CuBS2,FAILED_JVASP-3207.cif,1.872,2.202,mBJ,0.33,-0.42232,,I-42d
JVASP-20097,Th2Pd,FAILED_JVASP-20097.cif,0.0,0.0,mBJ,0.0,-0.5351,,I4/mcm
JVASP-1993,KBr,FAILED_JVASP-1993.cif,4.602,7.48,mBJ,2.878,-1.87002,,Fm-3m
JVASP-14976,NdAs,FAILED_JVASP-14976.cif,0.0,0.0,mBJ,0.0,-1.5643,,Fm-3m
JVASP-95288,SrC2S2N2,FAILED_JVASP-95288.cif,3.816,4.744,mBJ,0.928,-0.56741,,C2/c
JVASP-18923,NbS,FAILED_JVASP-18923.cif,0.0,0.0,mBJ,0.0,-0.98529,,P6_3/mmc
JVASP-14864,YSb,FAILED_JVASP-14864.cif,0.0,0.0,mBJ,0.0,-1.23708,,Fm-3m
JVASP-12178,Li2WS4,FAILED_JVASP-12178.cif,1.318,2.322,mBJ,1.004,-0.92454,,P-42m
JVASP-1804,KPrS2,FAILED_JVASP-1804.cif,2.254,3.261,mBJ,1.007,-2.00828,,R-3m
JVASP-99612,Ti3AgS6,FAILED_JVASP-99612.cif,0.0,0.0,mBJ,0.0,-1.26675,,R-3
JVASP-15275,TlFeS2,FAILED_JVASP-15275.cif,0.0,0.0,mBJ,0.0,-0.46675,,C2/m
JVASP-48341,NaVO3,FAILED_JVASP-48341.cif,3.024,3.487,mBJ,0.463,-2.45614,,C2/c
JVASP-15230,KTeAu,FAILED_JVASP-15230.cif,0.0,0.0,mBJ,0.0,-0.70365,,P6_3/mmc
JVASP-15451,NbAlNi2,FAILED_JVASP-15451.cif,0.0,0.0,mBJ,0.0,-0.44147,,Fm-3m
JVASP-99752,YbBa3,FAILED_JVASP-99752.cif,0.0,0.0,mBJ,0.0,0.04735,,I4/mmm
JVASP-14091,Sr2UO4,FAILED_JVASP-14091.cif,0.0,0.0,mBJ,0.0,-3.11195,,I4/mmm
JVASP-15127,MgAl2Cu,FAILED_JVASP-15127.cif,0.0,0.0,mBJ,0.0,-0.21539,,Cmcm
JVASP-17352,MnAlO3,FAILED_JVASP-17352.cif,0.0,0.0,mBJ,0.0,-1.38991,,Pm-3m
JVASP-1774,MgSe,FAILED_JVASP-1774.cif,2.782,4.28,mBJ,1.498,-1.3561,,F-43m
JVASP-99527,Na3AuF6,FAILED_JVASP-99527.cif,0.6,1.934,mBJ,1.334,-2.01637,,Fm-3m
JVASP-15612,NdCo2P2,FAILED_JVASP-15612.cif,0.0,0.0,mBJ,0.0,-0.97262,,I4/mmm
JVASP-99847,Tb3Te,FAILED_JVASP-99847.cif,0.0,0.0,mBJ,0.0,-0.4589,,I4/mmm
JVASP-105875,Tm3Sn,FAILED_JVASP-105875.cif,0.0,0.0,mBJ,0.0,-0.38134,,P6_3/mmc
JVASP-108056,TlInF6,FAILED_JVASP-108056.cif,2.714,5.068,mBJ,2.354,-2.22084,,R-3
JVASP-99428,Nd2TlIn,FAILED_JVASP-99428.cif,0.0,0.0,mBJ,0.0,-0.45927,,Fm-3m
JVASP-99376,Mn2PdPt,FAILED_JVASP-99376.cif,0.0,0.0,mBJ,0.0,-0.18165,,Fm-3m
JVASP-15564,NdNiC2,FAILED_JVASP-15564.cif,0.0,0.0,mBJ,0.0,-0.33741,,Amm2
JVASP-20074,YbGa4,FAILED_JVASP-20074.cif,0.0,0.0,mBJ,0.0,-0.41695,,I4/mmm
JVASP-1807,KSmS2,FAILED_JVASP-1807.cif,2.267,3.313,mBJ,1.046,-2.03696,,R-3m
JVASP-15654,YbSi2Ni2,FAILED_JVASP-15654.cif,0.0,0.0,mBJ,0.0,-0.71781,,I4/mmm
JVASP-14567,YAg,FAILED_JVASP-14567.cif,0.0,0.0,mBJ,0.0,-0.38736,,Pm-3m
JVASP-106024,NaNdS2,FAILED_JVASP-106024.cif,0.358,0.948,mBJ,0.59,-1.86402,,P4/mmm
JVASP-3216,NaZnAs,FAILED_JVASP-3216.cif,0.458,1.406,mBJ,0.948,-0.44891,,P4/nmm
JVASP-105877,UCd3,FAILED_JVASP-105877.cif,0.0,0.0,mBJ,0.0,0.24102,,Fm-3m
JVASP-108162,Al2ZnSe2S2,FAILED_JVASP-108162.cif,1.814,2.816,mBJ,1.002,-0.98088,,Pm
JVASP-99569,NiIr3,FAILED_JVASP-99569.cif,0.0,0.0,mBJ,0.0,0.00614,,I4/mmm
JVASP-99528,Na2GaHgF6,FAILED_JVASP-99528.cif,0.0,1.263,mBJ,1.263,-2.23886,,Fm-3m
JVASP-99008,RbEuS2,FAILED_JVASP-99008.cif,2.285,3.404,mBJ,1.119,-2.03012,,R-3m
JVASP-52825,RbHSeO4,FAILED_JVASP-52825.cif,3.753,5.222,mBJ,1.469,-1.1414,,P1
JVASP-95427,K4CO4,FAILED_JVASP-95427.cif,2.286,5.584,mBJ,3.298,-1.51041,,I-4
JVASP-17353,AlCrO3,FAILED_JVASP-17353.cif,0.0,0.0,mBJ,0.0,-1.49774,,Pm-3m
JVASP-106103,Cr3NiP4,FAILED_JVASP-106103.cif,0.0,0.0,mBJ,0.0,-0.4873,,Pm
JVASP-54949,Co2Sn,FAILED_JVASP-54949.cif,0.0,0.0,mBJ,0.0,0.16339,,P6_3/mmc
JVASP-1813,KDyS2,FAILED_JVASP-1813.cif,2.339,3.401,mBJ,1.062,-2.06458,,R-3m
JVASP-1300,MgS,FAILED_JVASP-1300.cif,2.945,4.276,mBJ,1.331,-1.62337,,Fm-3m
JVASP-108062,TiAlCo2,FAILED_JVASP-108062.cif,0.0,0.0,mBJ,0.0,-0.56791,,P4/mmm
JVASP-96941,CaAlB3O7,FAILED_JVASP-96941.cif,5.38,7.322,mBJ,1.942,-2.94202,,Cmme
JVASP-91451,MnCdF5,FAILED_JVASP-91451.cif,0.0,0.044,mBJ,0.044,-2.38767,,C2/c
JVASP-14821,Sb,FAILED_JVASP-14821.cif,0.0,0.0,mBJ,0.0,0.30369,,P6_3/mmc
JVASP-99382,KRb2InI6,FAILED_JVASP-99382.cif,1.272,2.145,mBJ,0.873,-1.06961,,Fm-3m
JVASP-49795,Al2O3,FAILED_JVASP-49795.cif,4.396,6.212,mBJ,1.816,-3.20812,,Cmc2_1
JVASP-1225,Bi2O3,FAILED_JVASP-1225.cif,2.189,3.398,mBJ,1.209,-1.36383,,P2_1/c
JVASP-108163,Al2CoNi,FAILED_JVASP-108163.cif,0.0,0.0,mBJ,0.0,-0.63903,,P4/mmm
JVASP-3510,BiI3,FAILED_JVASP-3510.cif,2.365,2.941,mBJ,0.576,-0.46095,,R-3
JVASP-99659,HfNbB2,FAILED_JVASP-99659.cif,0.0,0.0,mBJ,0.0,-0.73527,,Amm2
JVASP-95270,MgAlBO4,FAILED_JVASP-95270.cif,6.57,8.197,mBJ,1.627,-3.0269,,Pnma
JVASP-50593,TaTlO3,FAILED_JVASP-50593.cif,0.482,1.029,mBJ,0.547,-2.45366,,Fd-3m
JVASP-99009,EuS,FAILED_JVASP-99009.cif,0.0,1.563,mBJ,1.563,-2.18183,,Fm-3m
JVASP-19908,PrIr2,FAILED_JVASP-19908.cif,0.0,0.0,mBJ,0.0,-0.73798,,Fd-3m
JVASP-19874,VPd3,FAILED_JVASP-19874.cif,0.0,0.0,mBJ,0.0,-0.24195,,I4/mmm
JVASP-13768,CeGe2,FAILED_JVASP-13768.cif,0.0,0.0,mBJ,0.0,-0.56744,,I4_1/amd
JVASP-105727,BeRu3,FAILED_JVASP-105727.cif,0.0,0.0,mBJ,0.0,0.10416,,I4/mmm
JVASP-95431,Na2UO4,FAILED_JVASP-95431.cif,1.976,2.034,mBJ,0.058,-2.82325,,Pbam
JVASP-99530,KMnF3,FAILED_JVASP-99530.cif,1.584,2.057,mBJ,0.473,-2.70488,,I4/mcm
JVASP-48530,Li7VO5F,FAILED_JVASP-48530.cif,0.089,0.0,mBJ,-0.089,-2.35363,,P1
JVASP-28452,WS2,FAILED_JVASP-28452.cif,0.825,1.638,mBJ,0.813,-0.86918,,P-6m2
JVASP-108165,AgAu,FAILED_JVASP-108165.cif,0.0,0.0,mBJ,0.0,-0.05813,,R-3m
JVASP-106180,CrO3,FAILED_JVASP-106180.cif,1.588,2.124,mBJ,0.536,-1.64956,,Amm2
JVASP-106027,MnAl2Cu,FAILED_JVASP-106027.cif,0.0,0.0,mBJ,0.0,-0.21734,,P4/mmm
JVASP-28410,WSe2,FAILED_JVASP-28410.cif,1.334,1.587,mBJ,0.253,-0.46596,,P-6m2
JVASP-99613,Sr2Zn3Cd,FAILED_JVASP-99613.cif,0.0,0.0,mBJ,0.0,-0.33601,,Cm
JVASP-52302,LiAg2F4,FAILED_JVASP-52302.cif,0.0,0.0,mBJ,0.0,-1.64629,,Fd-3m
JVASP-99995,EuPPt,FAILED_JVASP-99995.cif,0.0,0.0,mBJ,0.0,-1.37749,,P-6m2
JVASP-105949,ZnSnAs2,FAILED_JVASP-105949.cif,0.0,0.565,mBJ,0.565,-0.17504,,P-4m2
JVASP-15059,Ta2Si,FAILED_JVASP-15059.cif,0.0,0.0,mBJ,0.0,-0.45934,,I4/mcm
JVASP-1816,KHoS2,FAILED_JVASP-1816.cif,2.356,3.298,mBJ,0.942,-2.06625,,R-3m
JVASP-4059,SmBrO,FAILED_JVASP-4059.cif,4.411,6.145,mBJ,1.734,-3.08097,,P4/nmm
JVASP-107966,Pd,FAILED_JVASP-107966.cif,0.0,0.0,mBJ,0.0,0.0073,,P6_3/mmc
JVASP-1918,HgI,FAILED_JVASP-1918.cif,1.476,2.067,mBJ,0.591,-0.0932,,I4/mmm
JVASP-91452,TlCO2,FAILED_JVASP-91452.cif,2.762,3.35,mBJ,0.588,-1.11922,,P2_1/c
JVASP-106105,CeUN2,FAILED_JVASP-106105.cif,0.0,0.0,mBJ,0.0,-1.61571,,R-3m
JVASP-341,WO2,FAILED_JVASP-341.cif,0.0,0.0,mBJ,0.0,-0.31626,,P6_3/mmc
JVASP-105950,Zr2VCo3,FAILED_JVASP-105950.cif,0.0,0.0,mBJ,0.0,-0.36956,,R-3m
JVASP-16102,SmRhC2,FAILED_JVASP-16102.cif,0.0,0.0,mBJ,0.0,-0.37582,,Amm2
JVASP-99660,CeY2Al3Pd3,FAILED_JVASP-99660.cif,0.0,0.0,mBJ,0.0,-0.87614,,Amm2
JVASP-99383,CaMg2,FAILED_JVASP-99383.cif,0.0,0.0,mBJ,0.0,-0.14034,,Fd-3m
JVASP-14568,SmAg,FAILED_JVASP-14568.cif,0.0,0.0,mBJ,0.0,-0.32443,,Pm-3m
JVASP-96885,Mg2BO3F,FAILED_JVASP-96885.cif,4.9,6.821,mBJ,1.921,-3.09457,,Pnma
JVASP-15013,VPt,FAILED_JVASP-15013.cif,0.0,0.0,mBJ,0.0,-0.55308,,P4/mmm
JVASP-3225,NaSrP,FAILED_JVASP-3225.cif,1.413,1.99,mBJ,0.577,-0.93476,,P-62m
JVASP-1867,FeAgO2,FAILED_JVASP-1867.cif,0.0,0.0,mBJ,0.0,-1.00313,,R-3m
JVASP-100052,BaSnN2,FAILED_JVASP-100052.cif,0.0,1.287,mBJ,1.287,-0.32978,,P4/nmm
JVASP-14649,NpCo2,FAILED_JVASP-14649.cif,0.0,0.0,mBJ,0.0,-0.20648,,Fd-3m
JVASP-100211,MnHg3,FAILED_JVASP-100211.cif,0.0,0.0,mBJ,0.0,0.54676,,Pm-3m
JVASP-99756,Ca3Nd,FAILED_JVASP-99756.cif,0.0,0.0,mBJ,0.0,0.08016,,Fm-3m
JVASP-16197,NbCrSi,FAILED_JVASP-16197.cif,0.0,0.0,mBJ,0.0,-0.42153,,P-62m
JVASP-99143,K3SbTe3,FAILED_JVASP-99143.cif,1.633,2.385,mBJ,0.752,-0.84703,,P2_13
JVASP-99531,AcGaO3,FAILED_JVASP-99531.cif,3.071,5.117,mBJ,2.046,-2.89519,,Pm-3m
JVASP-106028,MnAl2Cr3,FAILED_JVASP-106028.cif,0.0,0.0,mBJ,0.0,-0.16863,,P4mm
JVASP-1921,RbBr,FAILED_JVASP-1921.cif,4.436,6.932,mBJ,2.496,-1.86597,,Fm-3m
JVASP-50824,Sc2Ti2O7,FAILED_JVASP-50824.cif,3.591,4.064,mBJ,0.473,-3.49212,,C2/m
JVASP-20075,TiIr3,FAILED_JVASP-20075.cif,0.0,0.0,mBJ,0.0,-0.74352,,Pm-3m
JVASP-15708,TlSb,FAILED_JVASP-15708.cif,0.0,0.0,mBJ,0.0,0.1586,,Pm-3m
JVASP-4062,Ca3PCl3,FAILED_JVASP-4062.cif,1.701,2.564,mBJ,0.863,-2.16317,,Pm-3m
JVASP-15201,YbSi2Ru2,FAILED_JVASP-15201.cif,0.0,0.0,mBJ,0.0,-0.7731,,I4/mmm
JVASP-99614,Sm2Si3Pt,FAILED_JVASP-99614.cif,0.0,0.0,mBJ,0.0,-0.9198,,Imm2
JVASP-1894,NaInS2,FAILED_JVASP-1894.cif,1.848,3.191,mBJ,1.343,-0.98313,,R-3m
JVASP-1819,LiYS2,FAILED_JVASP-1819.cif,1.97,2.578,mBJ,0.608,-2.0375,,R-3m
JVASP-28413,MoS2,FAILED_JVASP-28413.cif,1.207,1.471,mBJ,0.264,-0.92268,,P-3m1
JVASP-100212,Na3Si,FAILED_JVASP-100212.cif,0.0,0.0,mBJ,0.0,0.09081,,Fm-3m
JVASP-100164,Eu2AgPt,FAILED_JVASP-100164.cif,0.0,0.0,mBJ,0.0,-0.79611,,Fm-3m
JVASP-99485,KSe3,FAILED_JVASP-99485.cif,0.602,1.137,mBJ,0.535,-0.47766,,C2
JVASP-3228,SrLiP,FAILED_JVASP-3228.cif,1.396,2.008,mBJ,0.612,-1.11136,,P6_3/mmc
JVASP-99806,LiEr2Au,FAILED_JVASP-99806.cif,0.0,0.0,mBJ,0.0,-0.44589,,Fm-3m
JVASP-1186,InAs,FAILED_JVASP-1186.cif,0.0,0.398,mBJ,0.398,-0.21205,,F-43m
JVASP-18895,NaZnAs,FAILED_JVASP-18895.cif,0.0,0.87,mBJ,0.87,-0.34586,,F-43m
JVASP-4071,GaCuI4,FAILED_JVASP-4071.cif,1.517,2.08,mBJ,0.563,-0.39281,,I-4
JVASP-55000,Rb2NbCl6,FAILED_JVASP-55000.cif,0.0,3.298,mBJ,3.298,-1.72417,,Fm-3m
JVASP-99384,CaAg3,FAILED_JVASP-99384.cif,0.0,0.0,mBJ,0.0,-0.25152,,I4/mmm
JVASP-105731,Cd,FAILED_JVASP-105731.cif,0.0,0.0,mBJ,0.0,0.01382,,P6_3/mmc
JVASP-15357,ErSi2Cu2,FAILED_JVASP-15357.cif,0.0,0.0,mBJ,0.0,-0.53377,,I4/mmm
JVASP-18749,U2Mo,FAILED_JVASP-18749.cif,0.0,0.0,mBJ,0.0,0.05994,,I4/mmm
JVASP-99574,RbP2Ir2,FAILED_JVASP-99574.cif,0.0,0.0,mBJ,0.0,-0.64355,,I4/mmm
JVASP-99949,NaPrS2,FAILED_JVASP-99949.cif,2.201,3.108,mBJ,0.907,-1.93537,,R-3m
JVASP-99532,BaMg,FAILED_JVASP-99532.cif,0.0,0.0,mBJ,0.0,-0.10411,,Pm-3m
JVASP-99436,Tm2InHg,FAILED_JVASP-99436.cif,0.0,0.0,mBJ,0.0,-0.39816,,Fm-3m
JVASP-99904,YAlFe,FAILED_JVASP-99904.cif,0.0,0.0,mBJ,0.0,-0.3333,,Imma
JVASP-96887,NaGeAu,FAILED_JVASP-96887.cif,0.0,0.0,mBJ,0.0,-0.34307,,Imm2
JVASP-14822,Tl,FAILED_JVASP-14822.cif,0.0,0.0,mBJ,0.0,0.0,,P6_3/mmc
JVASP-1183,InP,FAILED_JVASP-1183.cif,0.331,1.387,mBJ,1.056,-0.22434,,F-43m
JVASP-15657,TaAlNi2,FAILED_JVASP-15657.cif,0.0,0.0,mBJ,0.0,-0.46955,,Fm-3m
JVASP-95278,Nd2CN2O2,FAILED_JVASP-95278.cif,3.752,5.503,mBJ,1.751,-2.23125,,P-3m1
JVASP-106111,CdPbS2,FAILED_JVASP-106111.cif,0.0,0.0,mBJ,0.0,-0.55357,,P4/mmm
JVASP-15232,CeSi2Ru2,FAILED_JVASP-15232.cif,0.0,0.0,mBJ,0.0,-0.81031,,I4/mmm
JVASP-1924,InBr,FAILED_JVASP-1924.cif,1.556,1.643,mBJ,0.087,-0.75547,,Cmcm
JVASP-56304,TlCoCl3,FAILED_JVASP-56304.cif,0.0,0.0,mBJ,0.0,-0.79508,,P6_3/mmc
JVASP-100308,CrFeCoSi,FAILED_JVASP-100308.cif,0.0,0.0,mBJ,0.0,-0.22939,,F-43m
JVASP-15452,PrSi2Rh2,FAILED_JVASP-15452.cif,0.0,0.0,mBJ,0.0,-1.01818,,I4/mmm
JVASP-99616,MnSi2Ni,FAILED_JVASP-99616.cif,0.0,0.0,mBJ,0.0,-0.34991,,P2_1
JVASP-20098,TiRh3,FAILED_JVASP-20098.cif,0.0,0.0,mBJ,0.0,-0.63707,,Pm-3m
JVASP-22733,RbF2,FAILED_JVASP-22733.cif,0.0,0.0,mBJ,0.0,-1.82894,,P4_2/mnm
JVASP-1870,LiVO2,FAILED_JVASP-1870.cif,0.0,0.0,mBJ,0.0,-2.42721,,R-3m
JVASP-91382,FeCuO2,FAILED_JVASP-91382.cif,0.0,0.0,mBJ,0.0,-1.10907,,P6_3/mmc
JVASP-99576,ZnHgTe2,FAILED_JVASP-99576.cif,0.0,0.673,mBJ,0.673,-0.17931,,R3m
JVASP-100055,CrF6,FAILED_JVASP-100055.cif,1.73,2.074,mBJ,0.344,-2.08982,,R-3
JVASP-3447,PtPbF6,FAILED_JVASP-3447.cif,1.949,2.236,mBJ,0.287,-1.88221,,R-3m
JVASP-16198,VP2,FAILED_JVASP-16198.cif,0.0,0.0,mBJ,0.0,-0.60259,,C2/m
JVASP-28381,PdCl2,FAILED_JVASP-28381.cif,0.561,0.502,mBJ,-0.059,-0.48306,,P2_1/c
JVASP-99759,CaEu3,FAILED_JVASP-99759.cif,0.0,0.0,mBJ,0.0,0.06843,,I4/mmm
JVASP-3825,ErSCl,FAILED_JVASP-3825.cif,2.844,3.939,mBJ,1.095,-2.29765,,Pmmn
JVASP-2014,RbH,FAILED_JVASP-2014.cif,2.971,5.073,mBJ,2.102,-0.28885,,Fm-3m
JVASP-43243,LiCoPO4,FAILED_JVASP-43243.cif,0.02,0.004,mBJ,-0.016,-1.94218,,P-1
JVASP-1825,LiHoS2,FAILED_JVASP-1825.cif,1.993,2.728,mBJ,0.735,-2.01622,,R-3m
JVASP-16027,BaCd2Sb2,FAILED_JVASP-16027.cif,0.0,0.357,mBJ,0.357,-0.56695,,P-3m1
JVASP-14943,PrTe,FAILED_JVASP-14943.cif,0.0,0.75,mBJ,0.75,-1.47741,,Fm-3m
JVASP-99721,Na2TlGaF6,FAILED_JVASP-99721.cif,3.525,5.477,mBJ,1.952,-2.4589,,Fm-3m
JVASP-28830,TeW2S3,FAILED_JVASP-28830.cif,0.296,0.274,mBJ,-0.022,-0.79396,,P-6m2
JVASP-14823,Sn,FAILED_JVASP-14823.cif,0.0,0.0,mBJ,0.0,0.02319,,I4_1/amd
JVASP-4074,PI2,FAILED_JVASP-4074.cif,1.594,2.394,mBJ,0.8,-0.05037,,P-1
JVASP-99027,WSCl4,FAILED_JVASP-99027.cif,1.696,2.293,mBJ,0.597,-0.92114,,P-1
JVASP-99386,LiTl2Pd,FAILED_JVASP-99386.cif,0.0,0.0,mBJ,0.0,-0.23376,,Fm-3m
JVASP-16200,SrRhF6,FAILED_JVASP-16200.cif,0.0,0.0,mBJ,0.0,-2.60059,,R-3m
JVASP-15993,USiS,FAILED_JVASP-15993.cif,0.0,0.0,mBJ,0.0,-0.45658,,P4/nmm
JVASP-99489,In3Pd,FAILED_JVASP-99489.cif,0.0,0.0,mBJ,0.0,-0.05513,,Pm-3m
JVASP-5368,TiBr4,FAILED_JVASP-5368.cif,2.52,2.786,mBJ,0.266,-1.21691,,P2_1/c
JVASP-100260,YbAlAg2,FAILED_JVASP-100260.cif,0.0,0.0,mBJ,0.0,-0.35261,,Fm-3m
JVASP-106188,VOF3,FAILED_JVASP-106188.cif,2.05,2.26,mBJ,0.21,-2.62339,,C2
JVASP-99579,Mo2SeS3,FAILED_JVASP-99579.cif,0.794,0.876,mBJ,0.082,-0.88154,,P3m1
JVASP-16230,NbNiB,FAILED_JVASP-16230.cif,0.0,0.0,mBJ,0.0,-0.53996,,Cmcm
JVASP-3930,K5CuSb2,FAILED_JVASP-3930.cif,0.976,1.881,mBJ,0.905,-0.46208,,R-3m
JVASP-99617,Mg3InAg4,FAILED_JVASP-99617.cif,0.0,0.0,mBJ,0.0,-0.20863,,R-3m
JVASP-1873,NaFeO2,FAILED_JVASP-1873.cif,0.0,0.006,mBJ,0.006,-1.5919,,R-3m
JVASP-14671,Zr5Te4,FAILED_JVASP-14671.cif,0.0,0.0,mBJ,0.0,-0.84739,,I4/m
JVASP-50608,Mg2TiO4,FAILED_JVASP-50608.cif,3.37,3.925,mBJ,0.555,-3.14741,,P4_122
JVASP-3450,TiPbO3,FAILED_JVASP-3450.cif,1.813,1.876,mBJ,0.063,-2.51665,,P4mm
JVASP-2328,NbCu3Se4,FAILED_JVASP-2328.cif,1.344,1.374,mBJ,0.03,-0.49463,,P-43m
JVASP-100356,RbLiZnS2,FAILED_JVASP-100356.cif,2.626,4.044,mBJ,1.418,-1.27127,,I-4m2
JVASP-2226,Pr2SO2,FAILED_JVASP-2226.cif,2.975,4.426,mBJ,1.451,-3.26281,,P-3m1
JVASP-1828,LiErS2,FAILED_JVASP-1828.cif,2.04,2.773,mBJ,0.733,-2.02125,,R-3m
JVASP-55156,Fe3RhN,FAILED_JVASP-55156.cif,0.0,0.0,mBJ,0.0,-0.10539,,Pm-3m
JVASP-15994,USbTe,FAILED_JVASP-15994.cif,0.0,0.0,mBJ,0.0,-0.56968,,P4/nmm
JVASP-14824,In,FAILED_JVASP-14824.cif,0.0,0.0,mBJ,0.0,0.0,,I4/mmm
JVASP-4750,PrGe2,FAILED_JVASP-4750.cif,0.0,0.0,mBJ,0.0,-0.63025,,I4_1/amd
JVASP-99908,VCrN2,FAILED_JVASP-99908.cif,0.0,0.0,mBJ,0.0,-0.84158,,R-3m
JVASP-5194,SbSeI,FAILED_JVASP-5194.cif,1.363,1.93,HSE,0.567,-0.33721,,Pnma
JVASP-53306,TiSiRh,FAILED_JVASP-53306.cif,0.0,0.0,mBJ,0.0,-0.90442,,Pnma
JVASP-99664,Na3AlSiTe4,FAILED_JVASP-99664.cif,0.82,1.055,mBJ,0.235,-0.56071,,Pm
JVASP-99535,KHg3,FAILED_JVASP-99535.cif,0.0,0.0,mBJ,0.0,-0.07595,,Pm-3m
JVASP-100219,PrDy3,FAILED_JVASP-100219.cif,0.0,0.0,mBJ,0.0,0.01989,,I4/mmm
JVASP-4164,Tl3VO4,FAILED_JVASP-4164.cif,2.564,2.701,mBJ,0.137,-1.65594,,Imm2
JVASP-1501,KPrTe2,FAILED_JVASP-1501.cif,1.265,1.781,mBJ,0.516,-1.48943,,R-3m