material_id,formula,cif_path,pbe_bandgap,hse_bandgap,gap_type,correction,formation_energy,total_energy,spacegroup
JVASP-52324,NbAlO4,FAILED_JVASP-52324.cif,2.726,3.271,mBJ,0.545,-2.94195,,C2/m
JVASP-8023,LuAl3,FAILED_JVASP-8023.cif,0.0,0.0,mBJ,0.0,-0.42016,,Pm-3m
JVASP-8440,CrAs,FAILED_JVASP-8440.cif,0.0,0.0,mBJ,0.0,-0.14317,,Pnma
JVASP-8346,CaCoF6,FAILED_JVASP-8346.cif,0.0,0.0,mBJ,0.0,-2.62223,,R-3
JVASP-8173,RbNaO,FAILED_JVASP-8173.cif,2.535,4.736,mBJ,2.201,-1.29518,,P4/nmm
JVASP-8713,ScNiBi,FAILED_JVASP-8713.cif,0.177,0.214,mBJ,0.037,-0.66906,,F-43m
JVASP-7751,Tb2SO2,FAILED_JVASP-7751.cif,3.095,4.545,mBJ,1.45,-3.43139,,P-3m1
JVASP-11136,RbNO3,FAILED_JVASP-11136.cif,3.105,4.146,mBJ,1.041,-1.05931,,Pmmn
JVASP-8566,AgI,FAILED_JVASP-8566.cif,0.629,2.089,mBJ,1.46,-0.19091,,Fm-3m
JVASP-8267,VO2,FAILED_JVASP-8267.cif,0.0,2.073,mBJ,2.073,-2.34639,,R-3m
JVASP-10089,K2SrTa2O7,FAILED_JVASP-10089.cif,2.117,3.495,mBJ,1.378,-2.99265,,I4/mmm
JVASP-8387,TeWO6,FAILED_JVASP-8387.cif,0.44,2.156,mBJ,1.716,-1.56644,,R-3
JVASP-8311,MgTiF6,FAILED_JVASP-8311.cif,4.667,4.999,mBJ,0.332,-3.63262,,R-3
JVASP-30281,CrCo2O6,FAILED_JVASP-30281.cif,0.0,0.0,mBJ,0.0,-1.30197,,C2
JVASP-9997,Ba2HoSbO6,FAILED_JVASP-9997.cif,3.671,4.741,mBJ,1.07,-2.91823,,Fm-3m
JVASP-49816,Er2TeO2,FAILED_JVASP-49816.cif,0.666,1.835,mBJ,1.169,-3.0946,,P6_3/mmc
JVASP-12962,Ca5P8,FAILED_JVASP-12962.cif,1.389,1.85,mBJ,0.461,-1.02314,,C2/m
JVASP-8511,TaRu3C,FAILED_JVASP-8511.cif,0.0,0.0,mBJ,0.0,-0.06399,,Pm-3m
JVASP-8047,ZnSe,FAILED_JVASP-8047.cif,1.255,2.669,mBJ,1.414,-0.71214,,P6_3mc
JVASP-22657,LiMgBi,FAILED_JVASP-22657.cif,0.534,1.106,mBJ,0.572,-0.48027,,F-43m
JVASP-11137,TiP2S6,FAILED_JVASP-11137.cif,1.336,1.473,mBJ,0.137,-0.61025,,Fdd2
JVASP-11753,BaWO4,FAILED_JVASP-11753.cif,1.659,5.53,mBJ,3.871,-2.82852,,I4_1/a
JVASP-56315,BaAg2GeSe4,FAILED_JVASP-56315.cif,0.273,0.885,mBJ,0.612,-0.73087,,I222
JVASP-7996,MnSe,FAILED_JVASP-7996.cif,0.0,0.0,mBJ,0.0,0.13551,,F-43m
JVASP-12963,Hg2As3Br,FAILED_JVASP-12963.cif,1.04,1.62,mBJ,0.58,-0.04145,,C2/c
JVASP-13310,CaNd2S4,FAILED_JVASP-13310.cif,2.079,2.782,mBJ,0.703,-2.27848,,I-42d
JVASP-8784,SrGa2Te4,FAILED_JVASP-8784.cif,0.383,0.924,mBJ,0.541,-0.74658,,I422
JVASP-9732,CdSO4,FAILED_JVASP-9732.cif,3.364,5.876,mBJ,2.512,-1.42613,,Pmn2_1
JVASP-57503,Co3C2Se2O10,FAILED_JVASP-57503.cif,0.0,0.0,mBJ,0.0,-0.90468,,C2/m
JVASP-8082,SrTiO3,FAILED_JVASP-8082.cif,1.814,2.302,mBJ,0.488,-3.41747,,Pm-3m
JVASP-8714,YNiBi,FAILED_JVASP-8714.cif,0.183,0.236,mBJ,0.053,-0.73319,,F-43m
JVASP-11141,K3GaO3,FAILED_JVASP-11141.cif,2.898,5.203,mBJ,2.305,-1.79754,,C2/m
JVASP-10301,Li3BN2,FAILED_JVASP-10301.cif,3.784,3.867,mBJ,0.083,-1.00486,,P4_2/mnm
JVASP-7752,Dy2SO2,FAILED_JVASP-7752.cif,3.125,4.597,mBJ,1.472,-3.44566,,P-3m1
JVASP-12681,Y2Ti2S2O5,FAILED_JVASP-12681.cif,0.679,1.091,mBJ,0.412,-3.11826,,I4/mmm
JVASP-12614,Co2P2O7,FAILED_JVASP-12614.cif,0.0,0.0,mBJ,0.0,-1.72085,,C2/m
JVASP-8268,CoO2,FAILED_JVASP-8268.cif,0.0,0.0,mBJ,0.0,-0.97271,,R-3m
JVASP-12727,Sn2IF3,FAILED_JVASP-12727.cif,2.536,3.337,mBJ,0.801,-1.93927,,Cmcm
JVASP-10302,K2GeAs2,FAILED_JVASP-10302.cif,0.823,1.762,mBJ,0.939,-0.44787,,Ibam
JVASP-58914,Sr4Zn3F14,FAILED_JVASP-58914.cif,5.06,7.385,mBJ,2.325,-3.42052,,P-62m
JVASP-11373,K2VCuS4,FAILED_JVASP-11373.cif,1.273,1.259,mBJ,-0.014,-1.1367,,Fddd
JVASP-29374,TiZnBi2O6,FAILED_JVASP-29374.cif,0.895,0.815,mBJ,-0.08,-1.9357,,P4mm
JVASP-12574,SrGeH2O4,FAILED_JVASP-12574.cif,4.265,6.48,mBJ,2.215,-1.93349,,I-42d
JVASP-10231,KNa2BO3,FAILED_JVASP-10231.cif,3.2,6.381,mBJ,3.181,-2.16262,,Pmmn
JVASP-4358,GaSe,FAILED_JVASP-4358.cif,0.678,2.071,mBJ,1.393,-0.58222,,P-6m2
JVASP-11374,Na2Sm2Ti3O10,FAILED_JVASP-11374.cif,2.065,2.678,mBJ,0.613,-3.18786,,I4/mmm
JVASP-8514,SiSe2,FAILED_JVASP-8514.cif,1.614,2.508,mBJ,0.894,-0.37089,,Ibam
JVASP-58916,TlBS3,FAILED_JVASP-58916.cif,1.692,2.647,mBJ,0.955,-0.44371,,P2_1/c
JVASP-7753,Ho2SO2,FAILED_JVASP-7753.cif,3.155,4.624,mBJ,1.469,-3.45741,,P-3m1
JVASP-9401,NaGaO2,FAILED_JVASP-9401.cif,3.001,5.42,mBJ,2.419,-2.01443,,Pna2_1
JVASP-7834,ThGe2,FAILED_JVASP-7834.cif,0.0,0.0,mBJ,0.0,-0.62334,,Cmcm
JVASP-30202,LuH3O3,FAILED_JVASP-30202.cif,5.01,7.698,mBJ,2.688,-2.03632,,P2_1/c
JVASP-50650,Sc2Ge2O7,FAILED_JVASP-50650.cif,3.742,4.46,mBJ,0.718,-2.72154,,Fd-3m
JVASP-30282,TiCo3O8,FAILED_JVASP-30282.cif,0.0,0.0,mBJ,0.0,-1.44824,,R-3m
JVASP-8269,VO2,FAILED_JVASP-8269.cif,0.0,2.089,mBJ,2.089,-2.33321,,R-3m
JVASP-11375,K2NbAgS4,FAILED_JVASP-11375.cif,2.176,2.402,mBJ,0.226,-1.09431,,Fddd
JVASP-56994,Ti2Bi,FAILED_JVASP-56994.cif,0.0,0.0,mBJ,0.0,-0.14023,,I4/mmm
JVASP-8083,KNbO3,FAILED_JVASP-8083.cif,1.888,2.402,mBJ,0.514,-2.67914,,Amm2
JVASP-55356,Mg3V2O8,FAILED_JVASP-55356.cif,3.16,3.446,mBJ,0.286,-2.82192,,Cmce
JVASP-51400,H4N2O3,FAILED_JVASP-51400.cif,3.087,4.315,mBJ,1.228,-0.49571,,Pmmn
JVASP-12615,Cr2CoO4,FAILED_JVASP-12615.cif,0.0,0.0,mBJ,0.0,-1.52356,,Fd-3m
JVASP-30284,MnCoO4,FAILED_JVASP-30284.cif,0.0,0.0,mBJ,0.0,-1.21303,,P2/m
JVASP-11376,K2TaAgS4,FAILED_JVASP-11376.cif,2.55,3.071,mBJ,0.521,-1.13184,,Fddd
JVASP-11177,Ba2NdSbO6,FAILED_JVASP-11177.cif,4.022,5.053,mBJ,1.031,-2.81394,,Fm-3m
JVASP-7835,HoSbPt,FAILED_JVASP-7835.cif,0.0,0.253,mBJ,0.253,-1.21955,,F-43m
JVASP-58919,Na2ZnBr4,FAILED_JVASP-58919.cif,3.803,5.874,mBJ,2.071,-1.34733,,Pnma
JVASP-7754,Er2SO2,FAILED_JVASP-7754.cif,3.186,4.664,mBJ,1.478,-3.47044,,P-3m1
JVASP-11756,HoCrO4,FAILED_JVASP-11756.cif,0.0,0.0,mBJ,0.0,-2.82793,,I4_1/a
JVASP-9998,Ba2PrSbO6,FAILED_JVASP-9998.cif,3.999,4.943,mBJ,0.944,-2.79933,,R-3
JVASP-11377,Rb2TaAgS4,FAILED_JVASP-11377.cif,2.597,3.024,mBJ,0.427,-1.15319,,Fddd
JVASP-29413,TcO3F,FAILED_JVASP-29413.cif,2.588,3.06,mBJ,0.472,-1.63531,,P2_1/c
JVASP-8271,CaTi2N2,FAILED_JVASP-8271.cif,0.0,0.0,mBJ,0.0,-0.79977,,P-4m2
JVASP-10188,CdP4,FAILED_JVASP-10188.cif,0.481,1.053,mBJ,0.572,-0.08759,,P2_1/c
JVASP-7989,LuCd,FAILED_JVASP-7989.cif,0.0,0.0,mBJ,0.0,-0.32163,,Pm-3m
JVASP-14262,Tm2S3,FAILED_JVASP-14262.cif,0.69,1.367,mBJ,0.677,-2.23202,,Pnma
JVASP-50654,Li2TiCuO4,FAILED_JVASP-50654.cif,0.0,0.0,mBJ,0.0,-2.23982,,I-4m2
JVASP-10232,KPS3,FAILED_JVASP-10232.cif,1.617,2.506,mBJ,0.889,-0.73051,,Immm
JVASP-8048,Ba2ZrS4,FAILED_JVASP-8048.cif,0.672,1.007,mBJ,0.335,-2.08963,,I4/mmm
JVASP-12728,Hg2P2S7,FAILED_JVASP-12728.cif,1.739,2.607,mBJ,0.868,-0.15181,,C2
JVASP-55527,PPbSe3,FAILED_JVASP-55527.cif,1.652,2.282,mBJ,0.63,-0.32092,,P2_1/c
JVASP-7836,BN,FAILED_JVASP-7836.cif,4.813,5.813,mBJ,1.0,-1.33774,,F-43m
JVASP-8084,KCuC2,FAILED_JVASP-8084.cif,2.122,2.114,mBJ,-0.008,0.19611,,P4_2/mmc
JVASP-58922,Cd4OF6,FAILED_JVASP-58922.cif,1.984,4.319,mBJ,2.335,-2.11013,,P4_2/nmc
JVASP-11379,Rb2VCuS4,FAILED_JVASP-11379.cif,1.297,1.295,mBJ,-0.002,-1.15093,,Fddd
JVASP-10233,Lu2CdS4,FAILED_JVASP-10233.cif,1.213,2.334,mBJ,1.121,-1.80139,,Fd-3m
JVASP-30285,Co2NiO6,FAILED_JVASP-30285.cif,0.0,0.0,mBJ,0.0,-0.9196,,C2/m
JVASP-32742,ReNCl4,FAILED_JVASP-32742.cif,0.914,1.761,mBJ,0.847,-0.45322,,I4
JVASP-8567,Li2FeBr4,FAILED_JVASP-8567.cif,0.0,0.0,mBJ,0.0,-1.11541,,Cmmm
JVASP-9734,Tl3PO4,FAILED_JVASP-9734.cif,2.698,3.723,mBJ,1.025,-1.6223,,P6_3
JVASP-7755,Lu2SO2,FAILED_JVASP-7755.cif,3.223,4.834,mBJ,1.611,-3.49425,,P-3m1
JVASP-28465,W3Se4S2,FAILED_JVASP-28465.cif,0.526,0.948,mBJ,0.422,-0.62264,,P-6m2
JVASP-31882,FeN3ClO3,FAILED_JVASP-31882.cif,1.294,1.9,mBJ,0.606,-0.32784,,P6_3mc
JVASP-10234,CdGeO3,FAILED_JVASP-10234.cif,1.606,3.441,mBJ,1.835,-1.56521,,R-3
JVASP-50902,MnP2,FAILED_JVASP-50902.cif,0.0,0.0,mBJ,0.0,-0.42401,,Pnnm
JVASP-11380,K2VCuSe4,FAILED_JVASP-11380.cif,1.019,0.995,mBJ,-0.024,-0.95065,,Fddd
JVASP-58923,K2HgS2,FAILED_JVASP-58923.cif,2.064,3.403,mBJ,1.339,-0.8874,,Pbcm
JVASP-11178,Lu2MgS4,FAILED_JVASP-11178.cif,2.029,2.972,mBJ,0.943,-2.06748,,Fd-3m
JVASP-8175,Ca2SiO4,FAILED_JVASP-8175.cif,4.515,5.973,mBJ,1.458,-3.15163,,I4/mmm
JVASP-302,SnSe,FAILED_JVASP-302.cif,0.199,0.132,mBJ,-0.067,-0.48064,,Fm-3m
JVASP-10235,ZnGeO3,FAILED_JVASP-10235.cif,2.373,4.062,mBJ,1.689,-1.70203,,R-3
JVASP-7837,Si,FAILED_JVASP-7837.cif,0.56,1.106,mBJ,0.546,0.0143,,P6_3/mmc
JVASP-12575,BaH4O3,FAILED_JVASP-12575.cif,4.419,6.53,mBJ,2.111,-1.57036,,Pmc2_1
JVASP-9776,TbBa2NbO6,FAILED_JVASP-9776.cif,3.056,3.753,mBJ,0.697,-3.30098,,I4/m
JVASP-48164,LiFeCo2O6,FAILED_JVASP-48164.cif,0.0,0.0,mBJ,0.0,-1.38193,,C2/m
JVASP-30338,MnSbO4,FAILED_JVASP-30338.cif,0.0,0.0,mBJ,0.0,-1.31926,,P2/m
JVASP-8785,ErAgSe2,FAILED_JVASP-8785.cif,0.396,1.145,mBJ,0.749,-1.20821,,I4_1/amd
JVASP-8087,RbCuC2,FAILED_JVASP-8087.cif,2.116,2.474,mBJ,0.358,0.19374,,P4_2/mmc
JVASP-10189,KCuO,FAILED_JVASP-10189.cif,1.38,1.782,mBJ,0.402,-1.14867,,I4/mmm
JVASP-8313,VZnF6,FAILED_JVASP-8313.cif,0.0,3.095,mBJ,3.095,-2.7442,,R-3
JVASP-11382,Rb2NbCuSe4,FAILED_JVASP-11382.cif,1.706,1.804,mBJ,0.098,-1.00273,,Fddd
JVASP-8349,ZnCoF6,FAILED_JVASP-8349.cif,0.0,0.0,mBJ,0.0,-1.97143,,R-3
JVASP-50657,LiSiBi3O7,FAILED_JVASP-50657.cif,3.057,3.165,mBJ,0.108,-1.88349,,P6_3
JVASP-58925,Hg2P3Br,FAILED_JVASP-58925.cif,0.958,1.725,mBJ,0.767,-0.05973,,Pbcn
JVASP-12682,LiTiPO4F,FAILED_JVASP-12682.cif,0.0,0.0,mBJ,0.0,-2.76125,,P-1
JVASP-53012,VO2,FAILED_JVASP-53012.cif,0.0,0.0,mBJ,0.0,-2.5514,,P4_2/mnm
JVASP-50785,Ho2Ge2O7,FAILED_JVASP-50785.cif,3.221,4.823,mBJ,1.602,-2.8275,,Fd-3m
JVASP-11757,Ca2FeWO6,FAILED_JVASP-11757.cif,0.0,0.0,mBJ,0.0,-2.53074,,Fm-3m
JVASP-11145,Ba2MgUO6,FAILED_JVASP-11145.cif,2.196,2.302,mBJ,0.106,-3.31955,,Fm-3m
JVASP-49817,HoCuO2,FAILED_JVASP-49817.cif,2.739,2.698,mBJ,-0.041,-2.60085,,R-3m
JVASP-49170,Tl2Pt2O7,FAILED_JVASP-49170.cif,0.747,1.284,mBJ,0.537,-0.85211,,Fd-3m
JVASP-56995,NbCoSn,FAILED_JVASP-56995.cif,0.0,0.0,mBJ,0.0,0.51559,,F-43m
JVASP-9149,Th3As4,FAILED_JVASP-9149.cif,0.334,0.581,mBJ,0.247,-1.38992,,I-43d
JVASP-10095,Lu2Si2O7,FAILED_JVASP-10095.cif,5.001,7.324,mBJ,2.323,-3.47103,,C2/m
JVASP-8444,SrMnSn,FAILED_JVASP-8444.cif,0.0,0.0,mBJ,0.0,-0.21476,,P4/nmm
JVASP-8788,BaIn2Te4,FAILED_JVASP-8788.cif,1.018,1.492,mBJ,0.474,-0.773,,I422
JVASP-10190,SrP,FAILED_JVASP-10190.cif,0.65,1.441,mBJ,0.791,-1.17824,,P-62m
JVASP-8027,GaN,FAILED_JVASP-8027.cif,0.327,2.047,mBJ,1.72,-0.10322,,Fm-3m
JVASP-11758,Ho6WO12,FAILED_JVASP-11758.cif,0.472,3.602,mBJ,3.13,-3.58754,,R-3
JVASP-50991,YbH3O3,FAILED_JVASP-50991.cif,0.0,0.0,mBJ,0.0,-1.57515,,P6_3/m
JVASP-8393,CrO2,FAILED_JVASP-8393.cif,0.0,0.0,mBJ,0.0,-1.89099,,Cm
JVASP-116,MgO,FAILED_JVASP-116.cif,5.131,6.805,mBJ,1.674,-3.00483,,Fm-3m
JVASP-9777,SrLi2Ta2O7,FAILED_JVASP-9777.cif,2.21,2.54,mBJ,0.33,-3.03149,,I4/mmm
JVASP-9403,K2SbF5,FAILED_JVASP-9403.cif,4.961,6.838,mBJ,1.877,-2.79069,,Cmcm
JVASP-52600,Bi2O3,FAILED_JVASP-52600.cif,1.165,2.177,mBJ,1.012,-1.23264,,P1
JVASP-14315,Yb2S2O,FAILED_JVASP-14315.cif,0.759,1.672,mBJ,0.913,-2.1628,,P2_1/c
JVASP-12576,NaGaH4,FAILED_JVASP-12576.cif,4.753,7.247,mBJ,2.494,-0.13392,,Cmcm
JVASP-53013,VO,FAILED_JVASP-53013.cif,0.0,0.0,mBJ,0.0,-1.70742,,R-3m
JVASP-50786,Ho2Ge2O7,FAILED_JVASP-50786.cif,3.947,6.044,mBJ,2.097,-2.77061,,C2/m
JVASP-7985,DyMg,FAILED_JVASP-7985.cif,0.0,0.0,mBJ,0.0,-0.06655,,Pm-3m
JVASP-30475,LuBrO,FAILED_JVASP-30475.cif,4.338,6.194,mBJ,1.856,-3.13282,,P4/nmm
JVASP-50083,LiBiB2O5,FAILED_JVASP-50083.cif,3.714,4.875,mBJ,1.161,-2.21258,,C2
JVASP-8177,TlN3,FAILED_JVASP-8177.cif,1.849,2.414,mBJ,0.565,0.30944,,I4/mcm
JVASP-56691,Hg2MoO4,FAILED_JVASP-56691.cif,1.821,2.359,mBJ,0.538,-1.29444,,C2/c
JVASP-7838,AlAuO2,FAILED_JVASP-7838.cif,0.782,1.691,mBJ,0.909,-2.10329,,P6_3/mmc
JVASP-8088,Ag2PdO2,FAILED_JVASP-8088.cif,0.175,0.577,mBJ,0.402,-0.31294,,Immm
JVASP-33828,LuI3,FAILED_JVASP-33828.cif,1.86,2.725,mBJ,0.865,-1.27359,,P6_3/mmc
JVASP-9735,TbCuS2,FAILED_JVASP-9735.cif,1.263,1.582,mBJ,0.319,-1.51,,P2_1/c
JVASP-56397,Tl2SnHgTe4,FAILED_JVASP-56397.cif,0.067,0.492,mBJ,0.425,-0.19404,,I-42m
JVASP-13313,YAg3Cl6,FAILED_JVASP-13313.cif,2.797,4.266,mBJ,1.469,-1.21479,,R-3
JVASP-33059,CuH6N4O4,FAILED_JVASP-33059.cif,0.225,0.721,mBJ,0.496,-0.34896,,P-1
JVASP-8789,TaO2F,FAILED_JVASP-8789.cif,2.12,3.307,mBJ,1.187,-3.01617,,P4_2/mmc
JVASP-9778,TbBa2SbO6,FAILED_JVASP-9778.cif,3.772,4.823,mBJ,1.051,-2.8985,,Fm-3m
JVASP-8518,TlInSe2,FAILED_JVASP-8518.cif,0.973,1.547,mBJ,0.574,-0.53746,,I4/mcm
JVASP-11762,HoCrO4,FAILED_JVASP-11762.cif,0.0,0.0,mBJ,0.0,-2.83685,,I4_1/amd
JVASP-9169,CaN6,FAILED_JVASP-9169.cif,3.506,4.405,mBJ,0.899,-0.22725,,Fddd
JVASP-4222,US3,FAILED_JVASP-4222.cif,0.0,0.0,mBJ,0.0,-1.2242,,P2_1/m
JVASP-8178,FeSi,FAILED_JVASP-8178.cif,0.153,0.068,mBJ,-0.085,-0.41908,,P2_13
JVASP-12729,P4Ru,FAILED_JVASP-12729.cif,1.223,1.378,mBJ,0.155,-0.44391,,P-1
JVASP-54898,SrCo2As2,FAILED_JVASP-54898.cif,0.0,0.0,mBJ,0.0,-0.63573,,I4/mmm
JVASP-51882,BN,FAILED_JVASP-51882.cif,5.91,7.136,mBJ,1.226,-1.11459,,Pnma
JVASP-53014,Cr3O,FAILED_JVASP-53014.cif,0.0,0.0,mBJ,0.0,-0.47201,,R-3c
JVASP-8718,ThCN,FAILED_JVASP-8718.cif,1.279,1.824,mBJ,0.545,-1.12414,,C2/m
JVASP-11387,Li2GeO3,FAILED_JVASP-11387.cif,3.695,3.62,mBJ,-0.075,-2.1277,,Cmc2_1
JVASP-12964,Cd2As3Br,FAILED_JVASP-12964.cif,0.873,1.594,mBJ,0.721,-0.27536,,C2/c
JVASP-30289,FeCo3O8,FAILED_JVASP-30289.cif,0.0,0.0,mBJ,0.0,-1.03167,,R-3m
JVASP-8314,ZnMoF6,FAILED_JVASP-8314.cif,0.0,0.0,mBJ,0.0,-2.48397,,R-3
JVASP-8089,YSnPd2,FAILED_JVASP-8089.cif,0.0,0.0,mBJ,0.0,-0.88194,,Fm-3m
JVASP-7839,CrInCo2,FAILED_JVASP-7839.cif,0.0,0.0,mBJ,0.0,0.22287,,Fm-3m
JVASP-13803,TlAgSe,FAILED_JVASP-13803.cif,0.67,1.234,mBJ,0.564,-0.25187,,Pnma
JVASP-48627,LiVF4,FAILED_JVASP-48627.cif,0.0,0.0,mBJ,0.0,-3.03625,,C2/c
JVASP-9404,SrSeO3,FAILED_JVASP-9404.cif,3.74,5.122,mBJ,1.382,-2.04377,,P2_1/m
JVASP-8790,Ba2NbO,FAILED_JVASP-8790.cif,0.0,0.0,mBJ,0.0,0.33889,,Fm-3m
JVASP-58930,BaReH9,FAILED_JVASP-58930.cif,3.758,4.801,mBJ,1.043,-0.2868,,P6_3/mmc
JVASP-8569,GaBiO3,FAILED_JVASP-8569.cif,1.352,2.278,mBJ,0.926,-1.50647,,Pm-3m
JVASP-56435,K2SnCl6,FAILED_JVASP-56435.cif,2.46,3.92,mBJ,1.46,-1.52712,,P4/mnc
JVASP-29375,CdBiClO2,FAILED_JVASP-29375.cif,3.088,4.371,mBJ,1.283,-1.30322,,P2_1/m
JVASP-8051,ZnGeAs2,FAILED_JVASP-8051.cif,0.079,1.073,mBJ,0.994,-0.1521,,I-42d
JVASP-8394,SbO2,FAILED_JVASP-8394.cif,0.0,0.0,mBJ,0.0,-1.08037,,R-3m
JVASP-13315,AgBiI4,FAILED_JVASP-13315.cif,1.03,1.592,mBJ,0.562,-0.35933,,Imma
JVASP-32321,GeCl4,FAILED_JVASP-32321.cif,3.744,5.858,mBJ,2.114,-0.88123,,P2_1/c
JVASP-9150,MgP4,FAILED_JVASP-9150.cif,0.595,1.022,mBJ,0.427,-0.3757,,P2_1/c
JVASP-12577,HO,FAILED_JVASP-12577.cif,4.202,5.889,mBJ,1.687,-0.50465,,P4_12_12
JVASP-30162,HoBrO,FAILED_JVASP-30162.cif,4.466,5.743,mBJ,1.277,-3.0581,,Pmmn
JVASP-5119,Ba2UCuO6,FAILED_JVASP-5119.cif,0.0,0.0,mBJ,0.0,-2.38082,,I4/mmm
JVASP-10683,RbSb,FAILED_JVASP-10683.cif,0.708,1.235,mBJ,0.527,-0.50696,,P2_1/c
JVASP-8090,AlTlF4,FAILED_JVASP-8090.cif,4.586,11.653,mBJ,7.067,-3.16977,,P4/mmm
JVASP-51352,Ag3SI,FAILED_JVASP-51352.cif,0.591,1.575,mBJ,0.984,-0.10062,,R3
JVASP-13316,LiMnO2,FAILED_JVASP-13316.cif,0.052,0.0,mBJ,-0.052,-1.92294,,C2/c
JVASP-8675,PtS2Cl6,FAILED_JVASP-8675.cif,1.65,2.384,mBJ,0.734,-0.28179,,P-1
JVASP-8445,Ga2FeS4,FAILED_JVASP-8445.cif,0.0,0.041,mBJ,0.041,-0.58459,,P-3m1
JVASP-11183,TaAlO4,FAILED_JVASP-11183.cif,4.097,5.268,mBJ,1.171,-3.16319,,C2/m
JVASP-49818,USiS,FAILED_JVASP-49818.cif,0.0,0.0,mBJ,0.0,-1.00484,,P4/nmm
JVASP-10537,K3BP2,FAILED_JVASP-10537.cif,1.831,2.734,mBJ,0.903,-0.52535,,C2/c
JVASP-30476,RuF4,FAILED_JVASP-30476.cif,0.0,0.0,mBJ,0.0,-1.68442,,P2_1/c
JVASP-30340,CrSbO4,FAILED_JVASP-30340.cif,0.085,0.0,mBJ,-0.085,-1.62086,,P2/m
JVASP-33894,AgNO2,FAILED_JVASP-33894.cif,1.188,1.758,mBJ,0.57,-0.16085,,C2
JVASP-52602,CaC2,FAILED_JVASP-52602.cif,2.49,3.024,mBJ,0.534,-0.17721,,Immm
JVASP-18997,Si3N4,FAILED_JVASP-18997.cif,4.84,5.867,mBJ,1.027,-1.18862,,P31c
JVASP-12730,InOF,FAILED_JVASP-12730.cif,1.543,3.671,mBJ,2.128,-2.13861,,Fddd
JVASP-12028,InBr3,FAILED_JVASP-12028.cif,2.31,3.711,mBJ,1.401,-0.82977,,C2/m
JVASP-30450,Li2DyIn,FAILED_JVASP-30450.cif,0.0,0.0,mBJ,0.0,-0.30188,,Fm-3m
JVASP-30506,AgBiO2,FAILED_JVASP-30506.cif,1.493,2.439,mBJ,0.946,-0.87458,,P2_1/m
JVASP-10138,K2P2Pd,FAILED_JVASP-10138.cif,0.916,1.146,mBJ,0.23,-0.58676,,Cmcm
JVASP-51406,NaHS,FAILED_JVASP-51406.cif,3.398,5.166,mBJ,1.768,-0.7616,,P2_1/m
JVASP-10303,Rb2SnAs2,FAILED_JVASP-10303.cif,0.757,1.737,mBJ,0.98,-0.46497,,Ibam
JVASP-30203,AgBrO4,FAILED_JVASP-30203.cif,0.617,1.043,mBJ,0.426,0.25587,,I4_1/a
JVASP-33064,SiH6N2F4,FAILED_JVASP-33064.cif,6.868,9.934,mBJ,3.066,-1.53371,,P2_1/c
JVASP-7942,DyGa2,FAILED_JVASP-7942.cif,0.0,0.0,mBJ,0.0,-0.64264,,P6/mmm
JVASP-11504,Ba2Ti3O8,FAILED_JVASP-11504.cif,1.196,1.717,mBJ,0.521,-3.12978,,Pmm2
JVASP-29787,UH2O4,FAILED_JVASP-29787.cif,2.016,1.983,mBJ,-0.033,-2.18794,,Pbca
JVASP-10465,PtF4,FAILED_JVASP-10465.cif,1.297,1.658,mBJ,0.361,-1.31207,,Fdd2
JVASP-8520,ZnIn2S4,FAILED_JVASP-8520.cif,0.165,0.929,mBJ,0.764,-0.63755,,P3m1
JVASP-10192,LiAs,FAILED_JVASP-10192.cif,0.475,0.919,mBJ,0.444,-0.5267,,P2_1/c
JVASP-10001,Li2ZrTeO6,FAILED_JVASP-10001.cif,2.857,2.775,mBJ,-0.082,-2.28283,,R3
JVASP-52326,BiOF,FAILED_JVASP-52326.cif,3.203,4.997,mBJ,1.794,-1.98651,,Pbcm
JVASP-8353,MgCoF6,FAILED_JVASP-8353.cif,0.0,0.0,mBJ,0.0,-2.45684,,R-3
JVASP-51357,Yb2S3,FAILED_JVASP-51357.cif,1.382,2.354,mBJ,0.972,-1.78818,,C2/c
JVASP-51898,Tb3BWO9,FAILED_JVASP-51898.cif,3.279,4.304,mBJ,1.025,-3.33093,,P6_3
JVASP-10471,K2TaCuSe4,FAILED_JVASP-10471.cif,2.025,2.193,mBJ,0.168,-0.99113,,Fddd
JVASP-30422,V2O5,FAILED_JVASP-30422.cif,1.575,2.012,mBJ,0.437,-2.39171,,Pmmn
JVASP-12409,Li4PbO4,FAILED_JVASP-12409.cif,1.422,2.605,mBJ,1.183,-1.78747,,Cmcm
JVASP-8448,Nd3PbC,FAILED_JVASP-8448.cif,0.0,0.0,mBJ,0.0,1.55842,,Pm-3m
JVASP-8571,Ag3SI,FAILED_JVASP-8571.cif,0.591,1.576,mBJ,0.985,-0.10052,,R3
JVASP-50085,TiO,FAILED_JVASP-50085.cif,0.0,0.0,mBJ,0.0,-2.71166,,P-6m2
JVASP-11507,MoO3,FAILED_JVASP-11507.cif,2.252,2.703,mBJ,0.451,-2.0945,,Pc
JVASP-57000,YbP2Ru2,FAILED_JVASP-57000.cif,0.0,0.0,mBJ,0.0,-0.99984,,I4/mmm
JVASP-10538,K3BAs2,FAILED_JVASP-10538.cif,1.543,2.462,mBJ,0.919,-0.43679,,C2/c
JVASP-8521,NdMnSi,FAILED_JVASP-8521.cif,0.0,0.0,mBJ,0.0,-0.44764,,P4/nmm
JVASP-13318,BaNd2Se4,FAILED_JVASP-13318.cif,1.69,2.153,mBJ,0.463,-2.02903,,I-42d
JVASP-5221,WCl6,FAILED_JVASP-5221.cif,1.392,2.028,mBJ,0.636,-0.94806,,P-3m1
JVASP-8793,K2NaAs,FAILED_JVASP-8793.cif,0.3,1.704,mBJ,1.404,-0.47742,,P6_3/mmc
JVASP-56178,Te2Ir,FAILED_JVASP-56178.cif,0.0,0.0,mBJ,0.0,-0.25204,,Pnma
JVASP-14316,Ag3Sb,FAILED_JVASP-14316.cif,0.0,0.0,mBJ,0.0,0.10054,,Pmm2
JVASP-8522,Yb3SnC,FAILED_JVASP-8522.cif,0.0,0.0,mBJ,0.0,1.05249,,Pm-3m
JVASP-29744,Pb2O3,FAILED_JVASP-29744.cif,0.867,1.422,mBJ,0.555,-0.9887,,P4/nmm
JVASP-8678,BaP4Pd2,FAILED_JVASP-8678.cif,0.0,0.0,mBJ,0.0,-0.65949,,I4/mmm
JVASP-30478,PrBrO,FAILED_JVASP-30478.cif,4.417,5.56,mBJ,1.143,-3.04634,,P4/nmm
JVASP-30207,SbOF,FAILED_JVASP-30207.cif,2.936,3.037,mBJ,0.101,-1.88079,,Pnma
JVASP-56437,TbAu2,FAILED_JVASP-56437.cif,0.0,0.0,mBJ,0.0,-0.92872,,I4/mmm
JVASP-22659,Ag2HgI4,FAILED_JVASP-22659.cif,0.928,1.849,mBJ,0.921,-0.18886,,P-42m
JVASP-8395,SnO2,FAILED_JVASP-8395.cif,1.623,3.171,mBJ,1.548,-1.5912,,R-3m
JVASP-12188,AuClO2,FAILED_JVASP-12188.cif,0.844,1.182,mBJ,0.338,-0.05621,,C222_1
JVASP-7990,ErMg,FAILED_JVASP-7990.cif,0.0,0.0,mBJ,0.0,-0.05376,,Pm-3m
JVASP-9163,B13C2,FAILED_JVASP-9163.cif,0.0,0.0,mBJ,0.0,-0.09799,,R-3m
JVASP-8748,KClO2,FAILED_JVASP-8748.cif,2.226,3.574,mBJ,1.348,-0.78714,,Cmcm
JVASP-51899,Dy3BWO9,FAILED_JVASP-51899.cif,3.272,4.303,mBJ,1.031,-3.33609,,P6_3
JVASP-51358,TlInS2,FAILED_JVASP-51358.cif,0.273,0.933,mBJ,0.66,-0.24991,,P1
JVASP-10031,CaBi2O4,FAILED_JVASP-10031.cif,1.87,2.54,mBJ,0.67,-1.86179,,Imma
JVASP-8794,MnO2,FAILED_JVASP-8794.cif,0.0,0.0,mBJ,0.0,-1.41189,,R-3m
JVASP-10472,NaSi2N3,FAILED_JVASP-10472.cif,4.558,5.642,mBJ,1.084,-1.14759,,Cmc2_1
JVASP-8574,BiOF,FAILED_JVASP-8574.cif,3.258,5.069,mBJ,1.811,-1.98433,,P4/nmm
JVASP-10539,K2NaGaP2,FAILED_JVASP-10539.cif,1.44,2.48,mBJ,1.04,-0.55566,,Ibam
JVASP-56182,Li2AgBi,FAILED_JVASP-56182.cif,0.0,0.0,mBJ,0.0,-0.37107,,F-43m
JVASP-8033,NaNbO3,FAILED_JVASP-8033.cif,1.632,2.284,mBJ,0.652,-2.58118,,Pm-3m
JVASP-51901,Na4CO4,FAILED_JVASP-51901.cif,3.787,6.955,mBJ,3.168,-1.56115,,I-42m
JVASP-8679,Li2MgBr4,FAILED_JVASP-8679.cif,4.784,6.52,mBJ,1.736,-1.62945,,Cmmm
JVASP-51407,KHS,FAILED_JVASP-51407.cif,3.443,5.426,mBJ,1.983,-0.8688,,P2_1/m