material_id,formula,cif_path,pbe_bandgap,hse_bandgap,gap_type,correction,formation_energy,total_energy,spacegroup
JVASP-13397,KInBr3,FAILED_JVASP-13397.cif,2.258,3.532,mBJ,1.274,-1.24545,,P-3
JVASP-30210,CuH4I2O8,FAILED_JVASP-30210.cif,0.0,0.0,mBJ,0.0,-0.64737,,P2_1/c
JVASP-8092,ErSnAu,FAILED_JVASP-8092.cif,0.053,0.096,mBJ,0.043,-0.86211,,F-43m
JVASP-51359,FeO2,FAILED_JVASP-51359.cif,0.0,0.0,mBJ,0.0,-1.28113,,Fd-3m
JVASP-12732,NdSBr,FAILED_JVASP-12732.cif,2.573,3.389,mBJ,0.816,-2.13524,,P2_1/c
JVASP-8575,AlBiO3,FAILED_JVASP-8575.cif,2.059,2.849,mBJ,0.79,-2.26995,,Pm-3m
JVASP-30479,LuH2ClO2,FAILED_JVASP-30479.cif,4.853,6.633,mBJ,1.78,-2.21786,,Pnma
JVASP-50087,Tb3SbO7,FAILED_JVASP-50087.cif,2.838,3.942,mBJ,1.104,-3.18724,,Cmcm
JVASP-22660,MgCl2,FAILED_JVASP-22660.cif,5.626,8.288,mBJ,2.662,-1.98404,,P-3m1
JVASP-30343,FeCoO4,FAILED_JVASP-30343.cif,0.0,0.0,mBJ,0.0,-1.08198,,P2/m
JVASP-10652,CaMn2O4,FAILED_JVASP-10652.cif,0.0,0.0,mBJ,0.0,-2.15245,,R3m
JVASP-10687,BaGaBO3F2,FAILED_JVASP-10687.cif,5.29,7.508,mBJ,2.218,-2.98001,,P6_3/m
JVASP-51902,Rb4CO4,FAILED_JVASP-51902.cif,0.812,1.717,mBJ,0.905,-0.98019,,Amm2
JVASP-8356,MgWF6,FAILED_JVASP-8356.cif,0.0,0.0,mBJ,0.0,-2.86646,,R-3
JVASP-54989,TmSi2Pd2,FAILED_JVASP-54989.cif,0.0,0.0,mBJ,0.0,-0.85042,,I4/mmm
JVASP-8396,SbS2,FAILED_JVASP-8396.cif,0.0,0.0,mBJ,0.0,0.09836,,I-42d
JVASP-9694,CuAgS,FAILED_JVASP-9694.cif,0.661,0.857,mBJ,0.196,-0.13727,,Pnma
JVASP-55218,Mn3RhN,FAILED_JVASP-55218.cif,0.0,0.0,mBJ,0.0,-0.17976,,Pm-3m
JVASP-30480,Nd2Mg,FAILED_JVASP-30480.cif,0.0,0.0,mBJ,0.0,-0.05839,,Cmcm
JVASP-32942,BiSeCl,FAILED_JVASP-32942.cif,1.867,2.59,mBJ,0.723,-0.68731,,Pnma
JVASP-5341,Na5Zr2F13,FAILED_JVASP-5341.cif,5.764,6.227,mBJ,0.463,-3.35017,,C2/m
JVASP-9349,CrW2O8,FAILED_JVASP-9349.cif,0.0,0.0,mBJ,0.0,-2.07081,,P-1
JVASP-30163,BiOF,FAILED_JVASP-30163.cif,3.35,4.817,mBJ,1.467,-1.93296,,R-3m
JVASP-4361,As2O3,FAILED_JVASP-4361.cif,3.406,5.289,mBJ,1.883,-1.26178,,P2_1/c
JVASP-30212,SbOF3,FAILED_JVASP-30212.cif,2.535,4.094,mBJ,1.559,-1.96944,,P-1
JVASP-50788,TiOF,FAILED_JVASP-50788.cif,0.0,0.237,mBJ,0.237,-3.24919,,P2_1/c
JVASP-48629,LiCoCuO4,FAILED_JVASP-48629.cif,0.0,0.0,mBJ,0.0,-1.1586,,P2/m
JVASP-10096,RbPrTe4,FAILED_JVASP-10096.cif,0.347,0.936,mBJ,0.589,-1.01094,,P4/nbm
JVASP-10005,CaSiSnO5,FAILED_JVASP-10005.cif,3.513,5.047,mBJ,1.534,-2.68094,,C2/c
JVASP-14248,Ca2MgSi2O7,FAILED_JVASP-14248.cif,4.787,6.9,mBJ,2.113,-3.17756,,P-42_1m
JVASP-8397,SnS2,FAILED_JVASP-8397.cif,1.537,2.799,mBJ,1.262,-0.35516,,I-42d
JVASP-57770,RbAlF4,FAILED_JVASP-57770.cif,7.54,10.118,mBJ,2.578,-3.57249,,Pmmn
JVASP-12926,CaInBr3,FAILED_JVASP-12926.cif,3.152,3.652,mBJ,0.5,-1.60972,,Cmcm
JVASP-14319,PBr5,FAILED_JVASP-14319.cif,1.739,2.356,mBJ,0.617,-0.27766,,Pbcm
JVASP-10474,TaInO4,FAILED_JVASP-10474.cif,3.676,5.148,mBJ,1.472,-2.54035,,P2/c
JVASP-12733,TlCl2,FAILED_JVASP-12733.cif,1.948,2.553,mBJ,0.605,-0.80168,,I4_1/a
JVASP-28515,Te2MoW2S4,FAILED_JVASP-28515.cif,0.068,0.025,mBJ,-0.043,-0.51958,,P3m1
JVASP-31945,H8PdN2Cl6,FAILED_JVASP-31945.cif,1.066,1.752,mBJ,0.686,-0.5634,,P2_1/c
JVASP-8795,ZnIn2Se4,FAILED_JVASP-8795.cif,0.809,2.098,mBJ,1.289,-0.59066,,I-42m
JVASP-10475,K2NbCuSe4,FAILED_JVASP-10475.cif,1.667,1.748,mBJ,0.081,-0.97941,,Fddd
JVASP-9739,ZnGa2O4,FAILED_JVASP-9739.cif,2.617,4.269,mBJ,1.652,-1.93996,,Fd-3m
JVASP-10580,TmP5,FAILED_JVASP-10580.cif,0.312,0.708,mBJ,0.396,-0.57296,,P2_1/m
JVASP-10688,KVP2S7,FAILED_JVASP-10688.cif,0.0,0.0,mBJ,0.0,-0.6378,,C2
JVASP-9781,Sr2GaSbO6,FAILED_JVASP-9781.cif,1.483,2.777,mBJ,1.294,-2.42767,,I4/m
JVASP-29519,VPbClO3,FAILED_JVASP-29519.cif,2.0,2.288,mBJ,0.288,-2.01368,,Pnma
JVASP-22585,FeF3,FAILED_JVASP-22585.cif,0.0,0.0,mBJ,0.0,-1.99608,,R-3c
JVASP-29788,ScHO2,FAILED_JVASP-29788.cif,4.398,5.498,mBJ,1.1,-2.76115,,Cmc2_1
JVASP-54991,HoB6,FAILED_JVASP-54991.cif,0.0,0.0,mBJ,0.0,-0.39888,,Pm-3m
JVASP-51408,NiO2,FAILED_JVASP-51408.cif,0.0,0.0,mBJ,0.0,-0.43271,,Immm
JVASP-49820,HfZrO4,FAILED_JVASP-49820.cif,3.636,4.181,mBJ,0.545,-3.70441,,Cmmm
JVASP-56911,SmCr2Si2,FAILED_JVASP-56911.cif,0.0,0.0,mBJ,0.0,-0.3507,,I4/mmm
JVASP-28578,Mo3WSe4S4,FAILED_JVASP-28578.cif,0.649,0.623,mBJ,-0.026,-0.77146,,P3m1
JVASP-34910,PrZr3F15,FAILED_JVASP-34910.cif,6.069,6.252,mBJ,0.183,-3.97026,,R3m
JVASP-30557,MnO2,FAILED_JVASP-30557.cif,0.0,0.0,mBJ,0.0,-1.41127,,R-3m
JVASP-14163,As2S3,FAILED_JVASP-14163.cif,2.058,3.058,mBJ,1.0,-0.14267,,P2_1/c
JVASP-29376,PbO,FAILED_JVASP-29376.cif,2.294,3.316,mBJ,1.022,-1.22893,,Pbcm
JVASP-42859,ScAlIr2,FAILED_JVASP-42859.cif,0.0,0.0,mBJ,0.0,-1.0659,,Fm-3m
JVASP-10542,K2NiAs2,FAILED_JVASP-10542.cif,0.163,0.234,mBJ,0.071,-0.47968,,Cmcm
JVASP-50661,Li2Ag3F6,FAILED_JVASP-50661.cif,0.0,0.07,mBJ,0.07,-1.83318,,P-1
JVASP-9158,As4S5,FAILED_JVASP-9158.cif,1.591,2.525,mBJ,0.934,-0.15308,,P2_1/m
JVASP-50993,YbH3O3,FAILED_JVASP-50993.cif,0.0,0.0,mBJ,0.0,-1.57515,,P6_3/m
JVASP-29377,TiZnBi2O6,FAILED_JVASP-29377.cif,1.689,2.332,mBJ,0.643,-1.94731,,P4mm
JVASP-10097,TcAgO4,FAILED_JVASP-10097.cif,1.435,1.683,mBJ,0.248,-1.26488,,I4_1/a
JVASP-56914,K2NaBP2,FAILED_JVASP-56914.cif,1.876,2.636,mBJ,0.76,-0.5099,,C2/m
JVASP-56323,BaN3Cl,FAILED_JVASP-56323.cif,4.1,4.944,mBJ,0.844,-1.00473,,P2_1/m
JVASP-10544,K2NaGaAs2,FAILED_JVASP-10544.cif,0.946,2.122,mBJ,1.176,-0.57244,,Ibam
JVASP-49824,NbNO,FAILED_JVASP-49824.cif,1.714,2.209,mBJ,0.495,-1.72082,,C2/m
JVASP-34197,KNO2,FAILED_JVASP-34197.cif,2.518,3.87,mBJ,1.352,-1.00531,,Cm
JVASP-13319,Co2SnO4,FAILED_JVASP-13319.cif,0.0,0.0,mBJ,0.0,-1.15168,,Imma
JVASP-30423,CoO2,FAILED_JVASP-30423.cif,0.0,0.0,mBJ,0.0,-0.98759,,R-3m
JVASP-12063,CoO2,FAILED_JVASP-12063.cif,0.0,0.0,mBJ,0.0,0.16416,,P6_3/mmc
JVASP-57476,CuCSN,FAILED_JVASP-57476.cif,2.071,2.425,mBJ,0.354,0.13237,,P6_3mc
JVASP-30507,AgBiO2,FAILED_JVASP-30507.cif,1.304,2.327,mBJ,1.023,-0.91121,,P2_1/m
JVASP-8399,TiS2,FAILED_JVASP-8399.cif,1.379,1.573,mBJ,0.194,-1.16399,,I-42d
JVASP-8358,AlCoF5,FAILED_JVASP-8358.cif,0.191,0.176,mBJ,-0.015,-2.86553,,Immm
JVASP-50092,TiO,FAILED_JVASP-50092.cif,0.0,0.0,mBJ,0.0,-2.65326,,Pm-3m
JVASP-9782,Ba3MgTa2O9,FAILED_JVASP-9782.cif,3.353,4.386,mBJ,1.033,-3.27737,,P-3m1
JVASP-9864,MgAg2O4,FAILED_JVASP-9864.cif,0.736,1.034,mBJ,0.298,-0.85271,,I4_1/amd
JVASP-56252,Ta3AlC2,FAILED_JVASP-56252.cif,0.0,0.0,mBJ,0.0,-0.60038,,P6_3/mmc
JVASP-4804,NaMnTe2,FAILED_JVASP-4804.cif,0.0,0.0,mBJ,0.0,-0.28955,,P3m1
JVASP-51409,YbH2,FAILED_JVASP-51409.cif,0.077,3.15,mBJ,3.073,-0.64461,,Fm-3m
JVASP-12825,Na3BO3,FAILED_JVASP-12825.cif,3.319,6.361,mBJ,3.042,-2.15059,,P2_1/c
JVASP-9740,TaNO,FAILED_JVASP-9740.cif,2.256,3.238,mBJ,0.982,-2.07078,,C2/m
JVASP-10032,ZnSb2O4,FAILED_JVASP-10032.cif,0.939,1.471,mBJ,0.532,-1.21953,,Imma
JVASP-13132,RbAuBr4,FAILED_JVASP-13132.cif,1.393,2.003,mBJ,0.61,-0.78142,,P2_1/c
JVASP-13401,SiH3I,FAILED_JVASP-13401.cif,4.105,5.138,mBJ,1.033,-0.09822,,P2_1/c
JVASP-50994,V2HO4,FAILED_JVASP-50994.cif,0.0,0.0,mBJ,0.0,-2.20273,,Pm
JVASP-18999,Tm2S3,FAILED_JVASP-18999.cif,1.2,1.919,mBJ,0.719,-2.23061,,P2_1/m
JVASP-50792,BaCa2I6,FAILED_JVASP-50792.cif,3.265,4.194,mBJ,0.929,-1.65986,,P2_1/c
JVASP-9696,SrZrO3,FAILED_JVASP-9696.cif,3.735,4.322,mBJ,0.587,-3.57157,,I4/mcm
JVASP-42860,Pr2ZnIr,FAILED_JVASP-42860.cif,0.0,0.0,mBJ,0.0,-0.52553,,Fm-3m
JVASP-48634,LiFeF3,FAILED_JVASP-48634.cif,0.0,0.0,mBJ,0.0,-2.37624,,P1
JVASP-13138,Tl2TeBr6,FAILED_JVASP-13138.cif,2.091,2.574,mBJ,0.483,-0.63789,,P4/mnc
JVASP-30558,CrO2,FAILED_JVASP-30558.cif,0.0,0.0,mBJ,0.0,-1.71681,,R-3m
JVASP-5215,Bi2Se3,FAILED_JVASP-5215.cif,0.985,1.389,mBJ,0.404,-0.3791,,Pnma
JVASP-13321,CaSm2S4,FAILED_JVASP-13321.cif,2.108,2.918,mBJ,0.81,-2.28054,,I-42d
JVASP-57434,SiO2,FAILED_JVASP-57434.cif,4.562,7.629,mBJ,3.067,-2.71605,,Ccce
JVASP-11190,CaSnB2O6,FAILED_JVASP-11190.cif,3.979,5.608,mBJ,1.629,-2.60154,,R-3
JVASP-22661,Rb2TeBr6,FAILED_JVASP-22661.cif,1.962,2.436,mBJ,0.474,-1.10965,,I4/m
JVASP-13139,Tl2TeI6,FAILED_JVASP-13139.cif,1.472,1.908,mBJ,0.436,-0.39143,,P2_1/c
JVASP-19060,Dy2Hf2O7,FAILED_JVASP-19060.cif,3.312,4.934,mBJ,1.622,-3.82745,,Fd-3m
JVASP-8454,PbO,FAILED_JVASP-8454.cif,2.292,3.39,mBJ,1.098,-1.2282,,Pbcm
JVASP-50664,MgAl10O16,FAILED_JVASP-50664.cif,4.899,6.208,mBJ,1.309,-3.27367,,R3m
JVASP-49860,BaBePO4F,FAILED_JVASP-49860.cif,6.536,8.304,mBJ,1.768,-3.11046,,Cc
JVASP-137,SiS2,FAILED_JVASP-137.cif,2.727,3.81,HSE,1.083,-0.67065,,Ibam
JVASP-50794,SrLiNb2O6F,FAILED_JVASP-50794.cif,1.851,2.577,mBJ,0.726,-2.97084,,I-4m2
JVASP-4807,Zr2Np,FAILED_JVASP-4807.cif,0.0,0.0,mBJ,0.0,0.35322,,P6/mmm
JVASP-52332,LiBiS2,FAILED_JVASP-52332.cif,0.052,0.939,mBJ,0.887,-0.77819,,P4/mmm
JVASP-34199,RbC2O2,FAILED_JVASP-34199.cif,2.76,4.008,mBJ,1.248,-1.10623,,C2/m
JVASP-50094,Li3NbS4,FAILED_JVASP-50094.cif,2.685,3.069,mBJ,0.384,-1.21329,,P-43m
JVASP-30164,TiOF,FAILED_JVASP-30164.cif,0.0,0.0,mBJ,0.0,-3.20569,,Pmmn
JVASP-42693,LiTiV2O6,FAILED_JVASP-42693.cif,0.0,0.0,mBJ,0.0,-2.65247,,Cm
JVASP-29750,HgC2S2N2,FAILED_JVASP-29750.cif,2.091,3.23,mBJ,1.139,0.32885,,C2/m
JVASP-50307,NaDyO2,FAILED_JVASP-50307.cif,4.415,6.129,mBJ,1.714,-3.04205,,I4_1/amd
JVASP-12735,LiAg3O2,FAILED_JVASP-12735.cif,0.856,1.373,mBJ,0.517,-0.69955,,Ibam
JVASP-10545,K2GeSe3,FAILED_JVASP-10545.cif,1.589,2.648,mBJ,1.059,-0.91145,,P-1
JVASP-34201,V7O3,FAILED_JVASP-34201.cif,0.0,0.0,mBJ,0.0,-1.30065,,C2/m
JVASP-50095,NaLuO2,FAILED_JVASP-50095.cif,4.546,6.827,mBJ,2.281,-3.14248,,R-3m
JVASP-32744,PdSe6Br2,FAILED_JVASP-32744.cif,0.807,1.261,mBJ,0.454,-0.12701,,P-1
JVASP-10033,ZnBi2O4,FAILED_JVASP-10033.cif,1.412,2.158,mBJ,0.746,-1.26782,,Imma
JVASP-34309,NaAgN2O4,FAILED_JVASP-34309.cif,1.843,2.141,mBJ,0.298,-0.55536,,F222
JVASP-57539,AlF3,FAILED_JVASP-57539.cif,7.895,11.181,mBJ,3.286,-3.73367,,Cmcm
JVASP-30481,HoH2ClO2,FAILED_JVASP-30481.cif,4.694,6.381,mBJ,1.687,-2.2124,,P2_1/m
JVASP-12927,RbLiO,FAILED_JVASP-12927.cif,2.7,4.942,mBJ,2.242,-1.60749,,Pnma
JVASP-54621,MnTePd,FAILED_JVASP-54621.cif,0.0,0.0,mBJ,0.0,0.11453,,F-43m
JVASP-32943,AsNO2F6,FAILED_JVASP-32943.cif,3.05,2.977,mBJ,-0.073,-1.49535,,C2/m
JVASP-47929,Mn2OF3,FAILED_JVASP-47929.cif,0.0,0.0,mBJ,0.0,-2.25337,,Amm2
JVASP-34377,SrTa2Bi2O9,FAILED_JVASP-34377.cif,2.217,3.38,mBJ,1.163,-2.58738,,I4/mmm
JVASP-52605,H2O,FAILED_JVASP-52605.cif,5.502,9.658,mBJ,4.156,-0.99263,,Cc
JVASP-50014,Al2Si2O7,FAILED_JVASP-50014.cif,5.444,7.03,mBJ,1.586,-3.09159,,C2/c
JVASP-9094,TiO2,FAILED_JVASP-9094.cif,2.567,2.845,mBJ,0.278,-3.24965,,Pbcn
JVASP-10581,LuP5,FAILED_JVASP-10581.cif,0.334,0.752,mBJ,0.418,-0.55773,,P2_1/m
JVASP-9933,CaCu2O4,FAILED_JVASP-9933.cif,0.638,0.695,mBJ,0.057,-1.50408,,I4_1/a
JVASP-50524,DyAlO3,FAILED_JVASP-50524.cif,5.861,7.22,mBJ,1.359,-3.63345,,Pnma
JVASP-21233,Sr4PtO6,FAILED_JVASP-21233.cif,2.218,2.515,mBJ,0.297,-2.51256,,R-3c
JVASP-29635,C3N4,FAILED_JVASP-29635.cif,1.302,2.689,mBJ,1.387,0.33879,,R3m
JVASP-34255,Rb4CO4,FAILED_JVASP-34255.cif,0.568,4.187,mBJ,3.619,-1.35274,,Cm
JVASP-34536,Ba3In2Br2O5,FAILED_JVASP-34536.cif,1.437,3.334,mBJ,1.897,-2.30172,,I4/mmm
JVASP-9697,SmCuS2,FAILED_JVASP-9697.cif,1.18,1.616,mBJ,0.436,-1.51151,,P2_1/c
JVASP-52334,Sb3O4F,FAILED_JVASP-52334.cif,2.619,3.723,mBJ,1.104,-1.61693,,P2/c
JVASP-52120,MnPO4,FAILED_JVASP-52120.cif,0.0,0.0,mBJ,0.0,-2.06636,,Cmcm
JVASP-56589,TiAlPt,FAILED_JVASP-56589.cif,0.0,0.0,mBJ,0.0,-0.9373,,P6_3/mmc
JVASP-57479,ScF3,FAILED_JVASP-57479.cif,6.212,7.141,mBJ,0.929,-4.10632,,Pm-3m
JVASP-30608,MnS2,FAILED_JVASP-30608.cif,0.026,0.209,mBJ,0.183,-0.38453,,R-3m
JVASP-30508,CuBrO2,FAILED_JVASP-30508.cif,0.0,0.0,mBJ,0.0,-0.30529,,C2/m
JVASP-9742,TiPO4,FAILED_JVASP-9742.cif,0.0,0.0,mBJ,0.0,-2.64499,,Cmcm
JVASP-34651,KSbF6,FAILED_JVASP-34651.cif,4.948,6.778,mBJ,1.83,-2.63621,,P4_2/mcm
JVASP-10478,KLi6TaO6,FAILED_JVASP-10478.cif,4.436,5.62,mBJ,1.184,-2.42426,,R-3m
JVASP-30166,HoIO,FAILED_JVASP-30166.cif,3.52,4.606,mBJ,1.086,-2.90911,,P4/nmm
JVASP-28440,YbCl3,FAILED_JVASP-28440.cif,0.0,2.51,mBJ,2.51,-1.7933,,Cmcm
JVASP-52122,NiP3O9,FAILED_JVASP-52122.cif,0.0,0.472,mBJ,0.472,-1.83755,,R3
JVASP-51410,ScF3,FAILED_JVASP-51410.cif,4.861,6.109,mBJ,1.248,-3.72826,,C2
JVASP-10162,CaBi2O4,FAILED_JVASP-10162.cif,1.753,3.749,mBJ,1.996,-1.9017,,C2/m
JVASP-9934,MgFe2O4,FAILED_JVASP-9934.cif,0.0,0.0,mBJ,0.0,-1.83416,,Fd-3m
JVASP-43450,LiFeF3,FAILED_JVASP-43450.cif,0.0,0.0,mBJ,0.0,-2.45635,,R-3
JVASP-34311,H6CNF,FAILED_JVASP-34311.cif,6.163,9.882,mBJ,3.719,-0.58246,,R3m
JVASP-14323,BiPO4,FAILED_JVASP-14323.cif,2.139,3.362,mBJ,1.223,-1.26991,,P2_1/c
JVASP-34652,KFeF3,FAILED_JVASP-34652.cif,0.0,0.0,mBJ,0.0,-2.46927,,Pm-3m
JVASP-21344,MgCoSi2O6,FAILED_JVASP-21344.cif,0.0,0.34,mBJ,0.34,-2.5061,,C2/c
JVASP-19061,NbSbO4,FAILED_JVASP-19061.cif,2.466,3.18,mBJ,0.714,-2.22844,,Pnna
JVASP-52123,Ni5P4O16,FAILED_JVASP-52123.cif,0.0,0.0,mBJ,0.0,-1.5745,,P-1
JVASP-22662,NaN3,FAILED_JVASP-22662.cif,4.04,5.284,mBJ,1.244,-0.15146,,C2/m
JVASP-11192,NaGe2N3,FAILED_JVASP-11192.cif,2.479,3.818,mBJ,1.339,-0.29459,,Cmc2_1
JVASP-9698,Na3AlP2,FAILED_JVASP-9698.cif,1.477,2.617,mBJ,1.14,-0.60835,,Ibam
JVASP-13140,ScMn4Al8,FAILED_JVASP-13140.cif,0.0,0.0,mBJ,0.0,-0.33814,,I4/mmm
JVASP-5218,SbCl5,FAILED_JVASP-5218.cif,1.261,2.676,mBJ,1.415,-0.59178,,P6_3/mmc
JVASP-8456,GeO2,FAILED_JVASP-8456.cif,0.973,2.203,mBJ,1.23,-0.31937,,P3_121
JVASP-10582,YP5,FAILED_JVASP-10582.cif,0.303,0.664,mBJ,0.361,-0.60564,,P2_1/m
JVASP-34313,K2CO3,FAILED_JVASP-34313.cif,4.266,6.995,mBJ,2.729,-1.90874,,C2/c
JVASP-21347,CaCrSi2O6,FAILED_JVASP-21347.cif,0.018,0.0,mBJ,-0.018,-2.73373,,C2/c
JVASP-29789,CuH2O2,FAILED_JVASP-29789.cif,0.0,0.0,mBJ,0.0,-0.79043,,Cmc2_1
JVASP-13147,HoAl8Fe4,FAILED_JVASP-13147.cif,0.0,0.0,mBJ,0.0,-0.44291,,I4/mmm
JVASP-24653,AlCuCl4,FAILED_JVASP-24653.cif,2.742,3.129,mBJ,0.387,-1.23302,,P-42c
JVASP-12620,Cr2HgO4,FAILED_JVASP-12620.cif,0.0,0.0,mBJ,0.0,-1.5708,,Fd-3m
JVASP-10855,ZnFe2O4,FAILED_JVASP-10855.cif,0.0,0.0,mBJ,0.0,-1.46627,,Fd-3m
JVASP-8752,Ca2CoO3,FAILED_JVASP-8752.cif,0.0,0.0,mBJ,0.0,-2.33667,,Fmm2
JVASP-4816,YSi2,FAILED_JVASP-4816.cif,0.0,0.0,mBJ,0.0,-0.50985,,I4_1/amd
JVASP-34204,SrSnO3,FAILED_JVASP-34204.cif,1.264,2.959,mBJ,1.695,-2.38609,,Pm-3m
JVASP-56593,Si3As4,FAILED_JVASP-56593.cif,0.522,0.938,mBJ,0.416,-0.003,,P-43m
JVASP-29638,CdI2,FAILED_JVASP-29638.cif,2.198,3.016,mBJ,0.818,-0.58094,,P3m1
JVASP-34452,KTeHOF4,FAILED_JVASP-34452.cif,5.249,7.69,mBJ,2.441,-2.14075,,P2_1
JVASP-12622,TmCrO4,FAILED_JVASP-12622.cif,0.0,0.0,mBJ,0.0,-2.84704,,I4_1/amd
JVASP-34314,Ho2Hf2O7,FAILED_JVASP-34314.cif,3.203,4.835,mBJ,1.632,-3.8261,,Fd-3m
JVASP-5311,HgPS3,FAILED_JVASP-5311.cif,1.679,2.587,mBJ,0.908,-0.15992,,P-1
JVASP-19024,Mg3TeO6,FAILED_JVASP-19024.cif,3.112,4.304,mBJ,1.192,-2.33165,,R-3
JVASP-34785,KNaB2H8,FAILED_JVASP-34785.cif,6.415,8.682,mBJ,2.267,-0.40977,,R-3m
JVASP-34454,SiO2,FAILED_JVASP-34454.cif,5.59,8.766,mBJ,3.176,-2.85374,,Ima2
JVASP-13322,BaPr2S4,FAILED_JVASP-13322.cif,2.0,2.682,mBJ,0.682,-2.24624,,I-42d
JVASP-9406,RbAuF4,FAILED_JVASP-9406.cif,2.496,2.583,mBJ,0.087,-1.87127,,I4/mcm
JVASP-34206,Na3SO4F,FAILED_JVASP-34206.cif,4.627,9.455,mBJ,4.828,-1.91265,,P1
JVASP-10480,RbSe,FAILED_JVASP-10480.cif,0.871,2.123,mBJ,1.252,-1.01373,,P-62m
JVASP-9743,LiGaO2,FAILED_JVASP-9743.cif,3.346,3.841,mBJ,0.495,-2.18612,,Pna2_1
JVASP-29860,MnH2O2,FAILED_JVASP-29860.cif,0.0,0.0,mBJ,0.0,-0.84262,,C2/m
JVASP-50995,NaHO,FAILED_JVASP-50995.cif,3.492,6.427,mBJ,2.935,-1.37081,,Cm
JVASP-29381,Bi2SeO2,FAILED_JVASP-29381.cif,0.0,0.0,mBJ,0.0,-0.24812,,I4/mmm
JVASP-50903,Pb2O3,FAILED_JVASP-50903.cif,0.23,0.775,mBJ,0.545,-1.04719,,Pmn2_1
JVASP-9699,LiCuO,FAILED_JVASP-9699.cif,1.595,1.733,mBJ,0.138,-1.35566,,I4/mmm
JVASP-52124,Mg2VO4,FAILED_JVASP-52124.cif,0.0,0.243,mBJ,0.243,-2.79063,,Fd-3m
JVASP-10034,SbO2,FAILED_JVASP-10034.cif,0.618,1.201,mBJ,0.583,-1.34503,,Imma
JVASP-57482,La2MoO6,FAILED_JVASP-57482.cif,3.567,4.18,mBJ,0.613,-3.10138,,I-42m
JVASP-34925,V3Sb2,FAILED_JVASP-34925.cif,0.0,0.0,mBJ,0.0,-0.11202,,R-3m
JVASP-12831,NaBO2,FAILED_JVASP-12831.cif,4.487,7.06,mBJ,2.573,-2.4312,,R-3c
JVASP-34257,Rb4CO4,FAILED_JVASP-34257.cif,1.664,4.488,mBJ,2.824,-1.40684,,Cm
JVASP-34208,Pm2O3,FAILED_JVASP-34208.cif,4.015,5.417,mBJ,1.402,-3.63455,,P-3m1
JVASP-34733,SiO2,FAILED_JVASP-34733.cif,5.872,8.53,mBJ,2.658,-2.88223,,C2/c
JVASP-43457,AgClO3,FAILED_JVASP-43457.cif,3.162,4.614,mBJ,1.452,0.0063,,P2_1/c
JVASP-34210,Rb4CO4,FAILED_JVASP-34210.cif,0.739,5.094,mBJ,4.355,-1.40691,,I-42m
JVASP-11193,K3GeS3,FAILED_JVASP-11193.cif,2.396,3.643,mBJ,1.247,-1.1719,,C2/m
JVASP-11660,MgFe2O4,FAILED_JVASP-11660.cif,0.0,0.0,mBJ,0.0,-1.7521,,Imma
JVASP-57147,KCoF3,FAILED_JVASP-57147.cif,0.0,0.0,mBJ,0.0,-2.33867,,Pm-3m
JVASP-8457,Sb2Ru,FAILED_JVASP-8457.cif,0.098,0.137,mBJ,0.039,-0.19832,,Pnnm
JVASP-50904,Lu2TiO5,FAILED_JVASP-50904.cif,3.098,3.547,mBJ,0.449,-3.66601,,Cmcm
JVASP-34736,BaAg2Hg2O4,FAILED_JVASP-34736.cif,1.221,1.892,mBJ,0.671,-0.86915,,P4/nbm
JVASP-10856,V2O5,FAILED_JVASP-10856.cif,2.017,2.416,mBJ,0.399,-2.3548,,Cmcm
JVASP-24661,HfB4H16,FAILED_JVASP-24661.cif,5.416,6.883,mBJ,1.467,-0.17836,,P-43m
JVASP-9502,ZnSnF4,FAILED_JVASP-9502.cif,3.491,5.17,mBJ,1.679,-2.41703,,P-1
JVASP-49172,Ho3ScO6,FAILED_JVASP-49172.cif,4.599,5.941,mBJ,1.342,-3.85426,,R-3
JVASP-10036,TiO2,FAILED_JVASP-10036.cif,1.769,2.07,mBJ,0.301,-3.24118,,P4_2/mnm
JVASP-34794,KB3H3,FAILED_JVASP-34794.cif,4.916,5.674,mBJ,0.758,-0.33322,,Fm-3m
JVASP-4201,CrI2,FAILED_JVASP-4201.cif,0.0,0.0,mBJ,0.0,-0.25793,,R-3m
JVASP-11068,BaBe2N2,FAILED_JVASP-11068.cif,1.404,2.423,mBJ,1.019,-1.17786,,I4/mcm
JVASP-56594,YbHg2,FAILED_JVASP-56594.cif,0.0,0.0,mBJ,0.0,-0.37702,,P6/mmm
JVASP-22664,SeBr,FAILED_JVASP-22664.cif,1.057,1.945,mBJ,0.888,-0.07934,,Aea2
JVASP-10875,AlAgO2,FAILED_JVASP-10875.cif,0.985,2.375,mBJ,1.39,-2.09772,,Pna2_1
JVASP-29913,GaH3NF3,FAILED_JVASP-29913.cif,5.412,7.953,mBJ,2.541,-1.60208,,Aem2
JVASP-34795,H4NClO,FAILED_JVASP-34795.cif,5.583,7.248,mBJ,1.665,-0.48275,,P2_1/c
JVASP-5317,CuCO3,FAILED_JVASP-5317.cif,0.0,0.0,mBJ,0.0,-0.9343,,Cm
JVASP-9701,Na2SeO4,FAILED_JVASP-9701.cif,3.521,5.789,mBJ,2.268,-1.4436,,Fddd
JVASP-29752,PbClF,FAILED_JVASP-29752.cif,3.856,5.078,mBJ,1.222,-1.82081,,P2_1/m
JVASP-12064,VO2,FAILED_JVASP-12064.cif,0.0,0.0,mBJ,0.0,-2.34687,,P1
JVASP-34258,K4CO4,FAILED_JVASP-34258.cif,2.939,6.16,mBJ,3.221,-1.51314,,I222
JVASP-11073,HoAsO4,FAILED_JVASP-11073.cif,3.822,5.375,mBJ,1.553,-2.53247,,I4_1/amd
JVASP-34657,Na2S,FAILED_JVASP-34657.cif,2.359,4.547,mBJ,2.188,-1.18073,,Pnma
JVASP-77051,FeAgS2,FAILED_JVASP-77051.cif,0.0,0.0,mBJ,0.0,-0.28701,,R3m
JVASP-34182,NiP3O9,FAILED_JVASP-34182.cif,0.0,0.472,mBJ,0.472,-1.83755,,R3
JVASP-10550,Rb3BAs2,FAILED_JVASP-10550.cif,1.475,2.459,mBJ,0.984,-0.43378,,C2/c
JVASP-24792,Si,FAILED_JVASP-24792.cif,0.731,1.277,mBJ,0.546,0.0,,Fd-3m
JVASP-77052,InCuS2,FAILED_JVASP-77052.cif,0.057,0.625,mBJ,0.568,-0.4685,,R3m
JVASP-33072,SnH4N2F2,FAILED_JVASP-33072.cif,3.138,5.037,mBJ,1.899,-0.99388,,C2/m
JVASP-24685,Ca3C3Cl2,FAILED_JVASP-24685.cif,1.295,2.074,mBJ,0.779,-1.18713,,Cmcm
JVASP-50802,Ta3O7F,FAILED_JVASP-50802.cif,2.377,3.546,mBJ,1.169,-3.09713,,Cmmm
JVASP-8034,TlS,FAILED_JVASP-8034.cif,0.669,1.239,mBJ,0.57,-0.26939,,I4/mcm
JVASP-12141,BaB2Se6,FAILED_JVASP-12141.cif,1.626,2.62,mBJ,0.994,-0.58786,,Cmce
JVASP-30347,Sb4I2O5,FAILED_JVASP-30347.cif,1.883,2.727,mBJ,0.844,-1.19827,,P2_1/c
JVASP-8458,InCuO2,FAILED_JVASP-8458.cif,0.464,0.593,mBJ,0.129,-1.27019,,R-3m
JVASP-30510,AuO2F,FAILED_JVASP-30510.cif,0.884,1.23,mBJ,0.346,-0.36902,,C222_1
JVASP-43462,Hf2N2O,FAILED_JVASP-43462.cif,1.369,2.412,mBJ,1.043,-2.36247,,P2_1/m
JVASP-164,BCl3,FAILED_JVASP-164.cif,4.531,5.92,HSE,1.389,-0.95171,,P6_3/m
JVASP-35957,Mn3N2,FAILED_JVASP-35957.cif,0.0,0.0,mBJ,0.0,-0.14202,,P-3m1
JVASP-34213,CaCO3,FAILED_JVASP-34213.cif,5.883,7.548,mBJ,1.665,-2.12705,,C222_1
JVASP-29555,TiCl3,FAILED_JVASP-29555.cif,0.0,0.0,mBJ,0.0,-1.63138,,P312
JVASP-50019,Ga4SiO8,FAILED_JVASP-50019.cif,2.648,4.346,mBJ,1.698,-2.14624,,C2/m
JVASP-11194,K3GeSe3,FAILED_JVASP-11194.cif,1.811,2.853,mBJ,1.042,-1.07077,,C2/m
JVASP-30511,AgO2F,FAILED_JVASP-30511.cif,0.0,2.63,mBJ,2.63,-0.50964,,C222_1
JVASP-57226,CrO3,FAILED_JVASP-57226.cif,1.893,2.391,mBJ,0.498,-1.70562,,Ama2
JVASP-4819,DySi2,FAILED_JVASP-4819.cif,0.0,0.0,mBJ,0.0,-0.48353,,I4_1/amd
JVASP-57093,CoF3,FAILED_JVASP-57093.cif,0.0,0.0,mBJ,0.0,-1.82129,,R-3c