material_id,formula,cif_path,pbe_bandgap,hse_bandgap,gap_type,correction,formation_energy,total_energy,spacegroup
JVASP-36876,CaTlF3,FAILED_JVASP-36876.cif,4.633,5.849,mBJ,1.216,-3.21402,,Cm
JVASP-37399,Tl3F,FAILED_JVASP-37399.cif,0.0,0.0,mBJ,0.0,-0.63982,,I4/mmm
JVASP-30228,Mn2CoO6,FAILED_JVASP-30228.cif,0.0,0.0,mBJ,0.0,-1.31004,,C2/m
JVASP-36954,InSnBr3,FAILED_JVASP-36954.cif,2.312,2.751,mBJ,0.439,-0.76558,,R3c
JVASP-37715,TbH3,FAILED_JVASP-37715.cif,0.071,1.28,mBJ,1.209,-0.6659,,P-3c1
JVASP-36956,InSnCl3,FAILED_JVASP-36956.cif,2.821,3.293,mBJ,0.472,-0.98996,,R-3
JVASP-5053,InAgP2Se6,FAILED_JVASP-5053.cif,0.463,1.376,mBJ,0.913,-0.20364,,P-31c
JVASP-37717,HoTmMg2,FAILED_JVASP-37717.cif,0.0,0.0,mBJ,0.0,-0.05131,,Fm-3m
JVASP-33859,SiH8,FAILED_JVASP-33859.cif,7.29,9.166,mBJ,1.876,0.00272,,I-4m2
JVASP-37273,SmMo6S8,FAILED_JVASP-37273.cif,0.0,0.0,mBJ,0.0,-1.01349,,R-3
JVASP-36957,KAgBr3,FAILED_JVASP-36957.cif,0.0,0.0,mBJ,0.0,-0.90062,,Pm-3m
JVASP-29310,CeP3H8O7,FAILED_JVASP-29310.cif,0.017,0.009,mBJ,-0.008,-1.41488,,P-1
JVASP-36877,CaTlCl3,FAILED_JVASP-36877.cif,4.421,6.068,mBJ,1.647,-1.92364,,Cm
JVASP-38141,YWN3,FAILED_JVASP-38141.cif,1.232,1.797,mBJ,0.565,-1.27771,,Cmcm
JVASP-281,SnO,FAILED_JVASP-281.cif,0.505,1.06,mBJ,0.555,-1.42895,,P4/nmm
JVASP-36839,CuPtO2,FAILED_JVASP-36839.cif,0.0,0.0,mBJ,0.0,-0.62826,,Pmna
JVASP-36796,TlAgO2,FAILED_JVASP-36796.cif,0.0,0.0,mBJ,0.0,-0.55776,,P6_3/mmc
JVASP-37345,SrDy3,FAILED_JVASP-37345.cif,0.0,0.0,mBJ,0.0,0.19409,,I4/mmm
JVASP-36879,TlGeBr3,FAILED_JVASP-36879.cif,1.012,1.213,mBJ,0.201,-0.69922,,Cm
JVASP-37000,CaTlCl3,FAILED_JVASP-37000.cif,4.159,5.207,mBJ,1.048,-1.96828,,Cmcm
JVASP-36677,TiPN3,FAILED_JVASP-36677.cif,0.591,0.883,mBJ,0.292,-0.86793,,Amm2
JVASP-37401,Sm3Al,FAILED_JVASP-37401.cif,0.0,0.0,mBJ,0.0,-0.21143,,P6_3/mmc
JVASP-36958,InGeCl3,FAILED_JVASP-36958.cif,2.84,3.6,mBJ,0.76,-0.8733,,R3c
JVASP-37938,BaNd,FAILED_JVASP-37938.cif,0.0,0.0,mBJ,0.0,0.21506,,P-6m2
JVASP-29777,V2O5,FAILED_JVASP-29777.cif,1.843,2.145,mBJ,0.302,-2.32789,,Pmc2_1
JVASP-37346,Ti3O2,FAILED_JVASP-37346.cif,0.0,0.0,mBJ,0.0,-2.22077,,Immm
JVASP-36840,PdAuO2,FAILED_JVASP-36840.cif,0.0,0.0,mBJ,0.0,-0.35692,,P6_3/mmc
JVASP-36881,RbSrCl3,FAILED_JVASP-36881.cif,4.788,7.439,mBJ,2.651,-2.34147,,P1
JVASP-37497,YbPu3,FAILED_JVASP-37497.cif,0.0,0.0,mBJ,0.0,-0.01248,,I4/mmm
JVASP-36882,RbSnCl3,FAILED_JVASP-36882.cif,1.501,1.759,mBJ,0.258,-1.45372,,P1
JVASP-32431,H13C4NF2,FAILED_JVASP-32431.cif,6.999,8.869,mBJ,1.87,-0.44057,,Pmmn
JVASP-30231,Li2CoNi2O6,FAILED_JVASP-30231.cif,0.0,0.0,mBJ,0.0,-1.37464,,Cmc2_1
JVASP-30471,ScBi3,FAILED_JVASP-30471.cif,0.0,0.0,mBJ,0.0,-0.16158,,I4/mmm
JVASP-30472,LuIO,FAILED_JVASP-30472.cif,3.339,4.486,mBJ,1.147,-2.90683,,P4/nmm
JVASP-34018,Te7Mo6S5,FAILED_JVASP-34018.cif,0.703,0.932,mBJ,0.229,-0.51987,,Cm
JVASP-30233,MnC2O6,FAILED_JVASP-30233.cif,0.0,0.72,mBJ,0.72,-1.16625,,P2_1/c
JVASP-29779,C,FAILED_JVASP-29779.cif,0.0,0.0,mBJ,0.0,0.01297,,P6/mmm
JVASP-35187,SiP2O7,FAILED_JVASP-35187.cif,5.486,6.868,mBJ,1.382,-2.33756,,P2_1/c
JVASP-38463,NdTmMg2,FAILED_JVASP-38463.cif,0.0,0.0,mBJ,0.0,-0.077,,Fm-3m
JVASP-14120,Zn2P3S9,FAILED_JVASP-14120.cif,1.64,2.585,mBJ,0.945,-0.3858,,C2/m
JVASP-29400,Y2Te5O13,FAILED_JVASP-29400.cif,3.052,4.581,mBJ,1.529,-1.88217,,P-1
JVASP-29780,CdInGaS4,FAILED_JVASP-29780.cif,0.0,0.0,mBJ,0.0,-0.39712,,P3m1
JVASP-14121,TiPCl9,FAILED_JVASP-14121.cif,2.245,2.631,mBJ,0.386,-1.06482,,P-1
JVASP-37347,TlAu3,FAILED_JVASP-37347.cif,0.0,0.0,mBJ,0.0,0.0823,,I4/mmm
JVASP-38464,Li3Cr,FAILED_JVASP-38464.cif,0.0,0.0,mBJ,0.0,0.41923,,Pm-3m
JVASP-40157,Ca2SnS4,FAILED_JVASP-40157.cif,0.851,1.835,mBJ,0.984,-1.49497,,P-62m
JVASP-39091,Si3F,FAILED_JVASP-39091.cif,0.0,0.0,mBJ,0.0,-0.18301,,Fm-3m
JVASP-37405,Tb2AgIr,FAILED_JVASP-37405.cif,0.0,0.0,mBJ,0.0,-0.67776,,Fm-3m
JVASP-36752,CuPtO2,FAILED_JVASP-36752.cif,0.0,0.0,mBJ,0.0,-0.61416,,Pmmm
JVASP-37858,Al2CoOs,FAILED_JVASP-37858.cif,0.0,0.0,mBJ,0.0,-0.5312,,Fm-3m
JVASP-38465,Li3Co,FAILED_JVASP-38465.cif,0.0,0.0,mBJ,0.0,0.29635,,I4/mmm
JVASP-36888,RbPbBr3,FAILED_JVASP-36888.cif,2.062,2.692,mBJ,0.63,-1.26766,,P1
JVASP-13919,LiSnS2,FAILED_JVASP-13919.cif,0.0,0.924,mBJ,0.924,-0.79455,,P-3m1
JVASP-40189,Ca2SnS4,FAILED_JVASP-40189.cif,2.393,3.506,mBJ,1.113,-1.47306,,Ama2
JVASP-29781,AlHO2,FAILED_JVASP-29781.cif,5.615,7.458,mBJ,1.843,-2.47436,,Cmc2_1
JVASP-37501,Yb2BaCa,FAILED_JVASP-37501.cif,0.0,0.0,mBJ,0.0,0.02695,,Fm-3m
JVASP-36842,KAgO2,FAILED_JVASP-36842.cif,1.233,1.608,mBJ,0.375,-0.81375,,C2/c
JVASP-37061,ThCoC2,FAILED_JVASP-37061.cif,0.0,0.0,mBJ,0.0,-0.38677,,Amm2
JVASP-36680,CaWN3,FAILED_JVASP-36680.cif,0.562,1.048,mBJ,0.486,-0.89721,,C2/m
JVASP-13787,AlClO,FAILED_JVASP-13787.cif,5.942,7.683,mBJ,1.741,-2.55015,,Pmmn
JVASP-37349,SnRh3,FAILED_JVASP-37349.cif,0.0,0.0,mBJ,0.0,-0.21746,,I4/mmm
JVASP-36889,RbSnF3,FAILED_JVASP-36889.cif,3.697,5.675,mBJ,1.978,-2.6224,,P1
JVASP-37868,Dy2OsPd,FAILED_JVASP-37868.cif,0.0,0.0,mBJ,0.0,-0.64967,,Fm-3m
JVASP-13789,AlICl6,FAILED_JVASP-13789.cif,2.134,3.696,mBJ,1.562,-0.88947,,P2_1
JVASP-37099,ScAl3,FAILED_JVASP-37099.cif,0.0,0.0,mBJ,0.0,-0.38947,,I4/mmm
JVASP-36799,PbAuO2,FAILED_JVASP-36799.cif,0.0,0.0,mBJ,0.0,-0.70099,,P2/m
JVASP-37062,Ti2AlCr,FAILED_JVASP-37062.cif,0.0,0.0,mBJ,0.0,-0.04926,,F-43m
JVASP-36892,RbCuBr3,FAILED_JVASP-36892.cif,0.0,0.0,mBJ,0.0,-0.96992,,Pm-3m
JVASP-29401,AlH3O3,FAILED_JVASP-29401.cif,5.406,7.343,mBJ,1.937,-1.83354,,P-1
JVASP-40666,Li2VF6,FAILED_JVASP-40666.cif,0.03,0.0,mBJ,-0.03,-3.04282,,Cmc2_1
JVASP-29345,ThTe2I2,FAILED_JVASP-29345.cif,0.867,1.447,mBJ,0.58,-1.03136,,C2/m
JVASP-36960,RbCaI3,FAILED_JVASP-36960.cif,3.464,4.383,mBJ,0.919,-1.69164,,Pnma
JVASP-29782,AlHO2,FAILED_JVASP-29782.cif,5.614,7.458,mBJ,1.844,-2.47433,,Cmc2_1
JVASP-37004,YC,FAILED_JVASP-37004.cif,0.0,0.0,mBJ,0.0,0.32161,,F-43m
JVASP-37350,TbYTl2,FAILED_JVASP-37350.cif,0.0,0.0,mBJ,0.0,-0.38477,,Fm-3m
JVASP-37406,TbAgSe2,FAILED_JVASP-37406.cif,0.47,1.494,mBJ,1.024,-1.21668,,I4_1md
JVASP-40667,V3Co5O16,FAILED_JVASP-40667.cif,0.0,0.0,mBJ,0.0,-1.62708,,P1
JVASP-29783,NiH2O2,FAILED_JVASP-29783.cif,0.0,0.0,mBJ,0.0,-0.57311,,P3m1
JVASP-37005,YC,FAILED_JVASP-37005.cif,0.0,0.0,mBJ,0.0,0.37271,,Pm-3m
JVASP-33829,ErI3,FAILED_JVASP-33829.cif,1.773,2.559,mBJ,0.786,-1.31213,,P6_3/mmc
JVASP-30237,MnCo2O6,FAILED_JVASP-30237.cif,0.0,0.0,mBJ,0.0,-1.14297,,C2/m
JVASP-40216,Ca2SnS4,FAILED_JVASP-40216.cif,1.384,2.259,mBJ,0.875,-1.45082,,P4_122
JVASP-40193,Ca2SnS4,FAILED_JVASP-40193.cif,0.0,0.261,mBJ,0.261,-1.17093,,I4/mmm
JVASP-37103,Sc2MnSi,FAILED_JVASP-37103.cif,0.0,0.0,mBJ,0.0,-0.30711,,Fm-3m
JVASP-30452,B2S3,FAILED_JVASP-30452.cif,1.331,2.29,mBJ,0.959,-0.40475,,R-3c
JVASP-37999,Na3PS4,FAILED_JVASP-37999.cif,2.508,3.58,mBJ,1.072,-0.982,,I-43m
JVASP-36681,YWN3,FAILED_JVASP-36681.cif,1.543,2.115,mBJ,0.572,-1.2522,,Ama2
JVASP-36893,RbCaCl3,FAILED_JVASP-36893.cif,5.222,7.075,mBJ,1.853,-2.37332,,Cm
JVASP-30241,VC2O6,FAILED_JVASP-30241.cif,0.0,2.117,mBJ,2.117,-1.61901,,R-3
JVASP-39094,Si2B2O5,FAILED_JVASP-39094.cif,0.122,0.678,mBJ,0.556,-0.78907,,P4/mmm
JVASP-40668,Li2VH2OF5,FAILED_JVASP-40668.cif,0.08,0.0,mBJ,-0.08,-2.49137,,P-1
JVASP-37064,TcB,FAILED_JVASP-37064.cif,0.0,0.0,mBJ,0.0,-0.10614,,P6_3/mmc
JVASP-36844,AgRhO2,FAILED_JVASP-36844.cif,0.611,0.708,mBJ,0.097,-0.69962,,P6_3/mmc
JVASP-37007,YN,FAILED_JVASP-37007.cif,0.06,0.824,mBJ,0.764,-1.49332,,P-6m2
JVASP-29444,CoBiO3,FAILED_JVASP-29444.cif,0.0,0.0,mBJ,0.0,-1.16644,,P4mm
JVASP-36845,CuO2F,FAILED_JVASP-36845.cif,0.0,0.305,mBJ,0.305,-0.73017,,Imm2