material_id,formula,cif_path,pbe_bandgap,hse_bandgap,gap_type,correction,formation_energy,total_energy,spacegroup
JVASP-36822,TlCuO2,FAILED_JVASP-36822.cif,0.467,0.436,mBJ,-0.031,-0.66754,,P2_1/m
JVASP-30103,MoO3,FAILED_JVASP-30103.cif,1.158,1.53,mBJ,0.372,-2.03353,,Pc
JVASP-33823,LuCl3,FAILED_JVASP-33823.cif,3.393,5.3,mBJ,1.907,-2.22571,,P6_3/mmc
JVASP-14056,KAuSe5,FAILED_JVASP-14056.cif,1.01,1.507,mBJ,0.497,-0.33652,,Ibam
JVASP-29282,ZnC2N2,FAILED_JVASP-29282.cif,5.896,6.212,mBJ,0.316,0.17983,,P4_2nm
JVASP-36720,VCu3Te4,FAILED_JVASP-36720.cif,0.551,0.534,mBJ,-0.017,-0.21932,,P-43m
JVASP-29627,CdI2,FAILED_JVASP-29627.cif,2.171,3.366,mBJ,1.195,-0.58143,,P3m1
JVASP-29437,Sm2Ti3Bi2O12,FAILED_JVASP-29437.cif,2.056,2.57,mBJ,0.514,-2.91704,,I4/mmm
JVASP-40680,Li4MnCo3O8,FAILED_JVASP-40680.cif,0.0,0.0,mBJ,0.0,-1.7494,,R-3m
JVASP-37321,TbTlAg2,FAILED_JVASP-37321.cif,0.0,0.0,mBJ,0.0,-0.25928,,Fm-3m
JVASP-37547,TiI,FAILED_JVASP-37547.cif,0.0,0.0,mBJ,0.0,0.09357,,P6_3mc
JVASP-41241,HfScIr2,FAILED_JVASP-41241.cif,0.0,0.0,mBJ,0.0,-1.05985,,Fm-3m
JVASP-36777,LiAgO2,FAILED_JVASP-36777.cif,0.139,0.558,mBJ,0.419,-0.8797,,Pmmm
JVASP-37761,HfTl3,FAILED_JVASP-37761.cif,0.0,0.0,mBJ,0.0,0.26903,,I4/mmm
JVASP-38528,NaCa2In,FAILED_JVASP-38528.cif,0.0,0.0,mBJ,0.0,-0.30517,,Fm-3m
JVASP-33824,TmI3,FAILED_JVASP-33824.cif,1.802,2.744,mBJ,0.942,-1.30079,,P6_3/mmc
JVASP-29536,CdI2,FAILED_JVASP-29536.cif,2.191,3.396,mBJ,1.205,-0.58117,,P-3m1
JVASP-38852,ZrInRh2,FAILED_JVASP-38852.cif,0.0,0.0,mBJ,0.0,-0.75445,,I4/mmm
JVASP-29284,SnP2S6,FAILED_JVASP-29284.cif,1.038,1.842,mBJ,0.804,-0.3102,,R3
JVASP-29538,CdI2,FAILED_JVASP-29538.cif,2.215,2.946,mBJ,0.731,-0.58119,,P-3m1
JVASP-38644,Ni3Pb,FAILED_JVASP-38644.cif,0.0,0.0,mBJ,0.0,0.14328,,Pm-3m
JVASP-39420,Hf3Pt,FAILED_JVASP-39420.cif,0.0,0.0,mBJ,0.0,-0.41026,,P6_3/mmc
JVASP-29441,CdHg4C6S6Br4N6,FAILED_JVASP-29441.cif,1.568,2.737,mBJ,1.169,0.13556,,Fmm2
JVASP-30328,MgI2O6,FAILED_JVASP-30328.cif,3.165,4.473,mBJ,1.308,-1.00459,,P2_12_12_1
JVASP-38255,Rb3Cr,FAILED_JVASP-38255.cif,0.0,0.0,mBJ,0.0,0.67281,,Pm-3m
JVASP-37549,YbTm3,FAILED_JVASP-37549.cif,0.0,0.0,mBJ,0.0,0.10641,,I4/mmm
JVASP-29539,PbI2,FAILED_JVASP-29539.cif,2.259,3.14,mBJ,0.881,-0.65981,,P6_3mc
JVASP-36823,PbAuO2,FAILED_JVASP-36823.cif,0.0,0.0,mBJ,0.0,-0.70398,,C2/m
JVASP-41242,HfScOs2,FAILED_JVASP-41242.cif,0.0,0.0,mBJ,0.0,-0.6637,,Fm-3m
JVASP-30449,UP3,FAILED_JVASP-30449.cif,0.0,0.0,mBJ,0.0,-0.61413,,P6_3/mmc
JVASP-29285,MgC2N2,FAILED_JVASP-29285.cif,6.247,7.598,mBJ,1.351,-0.17768,,P4_2nm
JVASP-35175,Mg2SiO4,FAILED_JVASP-35175.cif,4.259,5.93,mBJ,1.671,-2.92728,,P-1
JVASP-38647,Ni3Sb,FAILED_JVASP-38647.cif,0.0,0.0,mBJ,0.0,-0.08993,,Pm-3m
JVASP-4693,YbSiIr,FAILED_JVASP-4693.cif,0.0,0.0,mBJ,0.0,-0.91612,,Pnma
JVASP-37449,DyYZn2,FAILED_JVASP-37449.cif,0.0,0.0,mBJ,0.0,-0.39573,,Fm-3m
JVASP-38298,RbPr3,FAILED_JVASP-38298.cif,0.0,0.0,mBJ,0.0,0.45626,,I4/mmm
JVASP-36778,LiAgO2,FAILED_JVASP-36778.cif,0.0,0.0,mBJ,0.0,-0.88017,,P2/m
JVASP-30329,CrPO5,FAILED_JVASP-30329.cif,0.059,0.0,mBJ,-0.059,-1.99143,,P4/n
JVASP-4696,SrLiP,FAILED_JVASP-4696.cif,0.899,1.729,mBJ,0.83,-1.02844,,P-6m2
JVASP-29359,GaTe,FAILED_JVASP-29359.cif,0.917,1.72,mBJ,0.803,-0.35031,,C2/m
JVASP-36824,CuO2F,FAILED_JVASP-36824.cif,0.0,0.005,mBJ,0.005,-0.77028,,Pmn2_1
JVASP-38856,MgZnRh2,FAILED_JVASP-38856.cif,0.0,0.0,mBJ,0.0,-0.44036,,Fm-3m
JVASP-38909,PrLu3,FAILED_JVASP-38909.cif,0.0,0.0,mBJ,0.0,0.01785,,P6_3/mmc
JVASP-36721,NbCu3Te4,FAILED_JVASP-36721.cif,1.12,1.132,mBJ,0.012,-0.26692,,P-43m
JVASP-38043,YWN3,FAILED_JVASP-38043.cif,1.647,2.124,mBJ,0.477,-1.26506,,Pmc2_1
JVASP-38582,Nd3Hg,FAILED_JVASP-38582.cif,0.0,0.0,mBJ,0.0,-0.13232,,I4/mmm
JVASP-4699,TaS,FAILED_JVASP-4699.cif,0.0,0.0,mBJ,0.0,-0.74264,,P-6m2
JVASP-39451,Ir3Ru,FAILED_JVASP-39451.cif,0.0,0.0,mBJ,0.0,-0.0325,,I4/mmm
JVASP-29443,NbIO2,FAILED_JVASP-29443.cif,0.798,1.311,mBJ,0.513,-2.05519,,Pnma
JVASP-38300,Ho3Hg,FAILED_JVASP-38300.cif,0.0,0.0,mBJ,0.0,-0.11322,,Pm-3m
JVASP-36723,PbBrCl,FAILED_JVASP-36723.cif,3.377,4.392,mBJ,1.015,-1.06807,,P4/nmm
JVASP-31825,AlBr4,FAILED_JVASP-31825.cif,0.0,0.0,mBJ,0.0,-0.71604,,Fm-3c
JVASP-37764,Na3DyCl6,FAILED_JVASP-37764.cif,5.359,6.968,mBJ,1.609,-2.10594,,P2_1/c
JVASP-4702,TmTe,FAILED_JVASP-4702.cif,0.0,0.0,mBJ,0.0,-1.17923,,P6_3/mmc
JVASP-34017,TeMoS,FAILED_JVASP-34017.cif,0.822,1.159,mBJ,0.337,-0.58472,,Pnma
JVASP-31826,CrSiH12O6F6,FAILED_JVASP-31826.cif,0.0,0.0,mBJ,0.0,-1.58754,,R-3
JVASP-37327,TbZr,FAILED_JVASP-37327.cif,0.0,0.0,mBJ,0.0,0.11154,,P-6m2
JVASP-35176,Mg2SiO4,FAILED_JVASP-35176.cif,5.066,6.57,mBJ,1.504,-2.85624,,Cmc2_1
JVASP-35214,Na2ZnSe2,FAILED_JVASP-35214.cif,1.958,3.596,mBJ,1.638,-0.98842,,Ibam
JVASP-38583,Nd3Ho,FAILED_JVASP-38583.cif,0.0,0.0,mBJ,0.0,0.01184,,I4/mmm
JVASP-38057,Rb2NaBiCl6,FAILED_JVASP-38057.cif,3.809,4.761,mBJ,0.952,-1.64789,,Fm-3m
JVASP-38303,RbNa2Sb,FAILED_JVASP-38303.cif,0.841,1.849,mBJ,1.008,-0.49432,,Fm-3m
JVASP-29288,CdC2N2,FAILED_JVASP-29288.cif,6.15,7.4,mBJ,1.25,0.37863,,P-43m
JVASP-38739,MgRh5,FAILED_JVASP-38739.cif,0.0,0.0,mBJ,0.0,-0.13857,,Cm
JVASP-40687,CrCo3O8,FAILED_JVASP-40687.cif,0.0,0.0,mBJ,0.0,-1.2999,,P6_3mc
JVASP-4705,AuSe,FAILED_JVASP-4705.cif,0.0,0.0,mBJ,0.0,0.15327,,P6_3/mmc
JVASP-39454,Rh3Pb,FAILED_JVASP-39454.cif,0.0,0.0,mBJ,0.0,0.0912,,I4/mmm
JVASP-29364,MnO2,FAILED_JVASP-29364.cif,0.0,0.0,mBJ,0.0,-1.65676,,Pmmn
JVASP-33415,PH6N2O2,FAILED_JVASP-33415.cif,5.038,7.494,mBJ,2.456,-0.81896,,P2_1/c
JVASP-37915,BC,FAILED_JVASP-37915.cif,0.0,0.0,mBJ,0.0,0.42249,,P6_3mc
JVASP-33825,TiH8N2F6,FAILED_JVASP-33825.cif,4.68,4.762,mBJ,0.082,-1.70331,,P-3m1
JVASP-36724,NdB4,FAILED_JVASP-36724.cif,0.0,0.0,mBJ,0.0,0.16528,,I4/mmm
JVASP-36781,FeAuO2,FAILED_JVASP-36781.cif,0.0,0.0,mBJ,0.0,-0.94073,,R-3m
JVASP-38584,Hf3Bi,FAILED_JVASP-38584.cif,0.0,0.0,mBJ,0.0,-0.0046,,I4/mmm
JVASP-38305,RbNpO3,FAILED_JVASP-38305.cif,0.0,0.0,mBJ,0.0,-2.98901,,Pm-3m
JVASP-31839,CoC4O4,FAILED_JVASP-31839.cif,0.0,0.0,mBJ,0.0,-0.53023,,P-43m
JVASP-38069,Rb2TlInF6,FAILED_JVASP-38069.cif,3.674,4.93,mBJ,1.256,-2.61892,,Fm-3m
JVASP-37831,Ca2AgBi,FAILED_JVASP-37831.cif,0.13,0.066,mBJ,-0.064,-0.69917,,Fm-3m
JVASP-36725,KCaSiHO4,FAILED_JVASP-36725.cif,4.622,7.049,mBJ,2.427,-2.57751,,P2_1
JVASP-32531,TlHCO2,FAILED_JVASP-32531.cif,3.402,4.666,mBJ,1.264,-0.92554,,Pnna
JVASP-37916,BaSr3O4,FAILED_JVASP-37916.cif,2.509,4.018,mBJ,1.509,-2.90661,,Pm-3m
JVASP-40693,Co3TeO8,FAILED_JVASP-40693.cif,0.0,0.0,mBJ,0.0,-1.07316,,P6_3mc
JVASP-4708,B2Au,FAILED_JVASP-4708.cif,0.0,0.0,mBJ,0.0,0.62294,,P6/mmm
JVASP-39455,PtRh3,FAILED_JVASP-39455.cif,0.0,0.0,mBJ,0.0,-0.01117,,Pm-3m
JVASP-37456,VCuRh2,FAILED_JVASP-37456.cif,0.0,0.0,mBJ,0.0,-0.26996,,Fm-3m
JVASP-37554,TmHfIr2,FAILED_JVASP-37554.cif,0.0,0.0,mBJ,0.0,-0.97759,,Fm-3m
JVASP-40509,Al2NiRu,FAILED_JVASP-40509.cif,0.0,0.0,mBJ,0.0,-0.68276,,Fm-3m
JVASP-29292,TbHO2,FAILED_JVASP-29292.cif,4.84,6.435,mBJ,1.595,-2.72031,,Pmmn
JVASP-38585,Nd3Ho,FAILED_JVASP-38585.cif,0.0,0.0,mBJ,0.0,0.00952,,Pm-3m
JVASP-30332,Rb2Fe4O7,FAILED_JVASP-30332.cif,0.0,0.0,mBJ,0.0,-1.37122,,P-31m
JVASP-4711,PdO,FAILED_JVASP-4711.cif,0.0,0.0,mBJ,0.0,-0.14825,,Fm-3m
JVASP-38070,NaTl2InF6,FAILED_JVASP-38070.cif,4.587,5.581,mBJ,0.994,-2.44819,,Fm-3m
JVASP-30333,Mn5CoO12,FAILED_JVASP-30333.cif,0.007,0.0,mBJ,-0.007,-1.60984,,C2/m
JVASP-37766,HfH3,FAILED_JVASP-37766.cif,0.0,0.0,mBJ,0.0,-0.23147,,I4/mmm
JVASP-35240,TiAgSe2,FAILED_JVASP-35240.cif,0.0,0.077,mBJ,0.077,-0.73526,,R3m
JVASP-37632,V2ReRu,FAILED_JVASP-37632.cif,0.0,0.0,mBJ,0.0,-0.29064,,Fm-3m
JVASP-38586,Nd3Mg,FAILED_JVASP-38586.cif,0.0,0.0,mBJ,0.0,-0.01367,,I4/mmm
JVASP-38082,Rb2NaSbCl6,FAILED_JVASP-38082.cif,3.146,3.879,mBJ,0.733,-1.59888,,Fm-3m
JVASP-38084,Rb2NaInCl6,FAILED_JVASP-38084.cif,3.093,4.954,mBJ,1.861,-1.71671,,Fm-3m
JVASP-36827,AgBrO2,FAILED_JVASP-36827.cif,0.342,0.395,mBJ,0.053,-0.08881,,C2/c
JVASP-37367,TmPu3,FAILED_JVASP-37367.cif,0.0,0.0,mBJ,0.0,-0.09583,,I4/mmm
JVASP-36727,RbBaSiHO4,FAILED_JVASP-36727.cif,4.107,6.485,mBJ,2.378,-2.50127,,P2_1
JVASP-36784,LiAgO2,FAILED_JVASP-36784.cif,0.762,1.174,mBJ,0.412,-0.93637,,Pmna
JVASP-35177,MgS2O7,FAILED_JVASP-35177.cif,5.957,8.049,mBJ,2.092,-1.71969,,P-1
JVASP-5815,Ga2PdI8,FAILED_JVASP-5815.cif,0.999,1.248,mBJ,0.249,-0.38653,,C2/m
JVASP-35242,NiCl,FAILED_JVASP-35242.cif,0.0,0.0,mBJ,0.0,-0.00126,,Fm-3m
JVASP-38592,MgMnO3,FAILED_JVASP-38592.cif,0.0,0.0,mBJ,0.0,-1.86728,,Pm-3m
JVASP-30113,MnO2,FAILED_JVASP-30113.cif,0.0,0.0,mBJ,0.0,-1.41461,,P-3m1
JVASP-37368,TmZr,FAILED_JVASP-37368.cif,0.0,0.0,mBJ,0.0,0.05983,,P-6m2
JVASP-35244,AlCu,FAILED_JVASP-35244.cif,0.0,0.0,mBJ,0.0,-0.13056,,Pm-3m
JVASP-38396,PrZnSbO,FAILED_JVASP-38396.cif,0.108,0.809,mBJ,0.701,-1.75469,,P4/nmm
JVASP-38085,Rb2NaTlF6,FAILED_JVASP-38085.cif,3.682,5.732,mBJ,2.05,-2.60559,,Fm-3m
JVASP-37636,ScSnO3,FAILED_JVASP-37636.cif,0.0,0.0,mBJ,0.0,-2.07938,,Pm-3m
JVASP-36828,PdAuO2,FAILED_JVASP-36828.cif,0.0,0.142,mBJ,0.142,-0.35712,,R-3m
JVASP-29294,InTeCl,FAILED_JVASP-29294.cif,1.551,2.472,mBJ,0.921,-0.66899,,P2_1/c
JVASP-37369,Tm2AlZn,FAILED_JVASP-37369.cif,0.0,0.0,mBJ,0.0,-0.40413,,Fm-3m
JVASP-38087,Rb2TlInCl6,FAILED_JVASP-38087.cif,2.269,3.195,mBJ,0.926,-1.48421,,Fm-3m
JVASP-38397,Pr3Ag,FAILED_JVASP-38397.cif,0.0,0.0,mBJ,0.0,-0.01482,,I4/mmm
JVASP-4714,YbNaP2S6,FAILED_JVASP-4714.cif,1.572,2.055,mBJ,0.483,-0.87039,,P-1
JVASP-37638,YbSr3,FAILED_JVASP-37638.cif,0.0,0.0,mBJ,0.0,0.02499,,Fm-3m
JVASP-37329,Tb2Be2O5,FAILED_JVASP-37329.cif,2.54,3.878,mBJ,1.338,-3.18213,,P4/mmm
JVASP-36728,KBaSiHO4,FAILED_JVASP-36728.cif,4.225,6.693,mBJ,2.468,-2.51424,,P2_1
JVASP-4237,GaBr3,FAILED_JVASP-4237.cif,2.982,4.557,mBJ,1.575,-0.79354,,P2_1/c
JVASP-38935,Mg2ZnPt,FAILED_JVASP-38935.cif,0.0,0.0,mBJ,0.0,-0.57034,,Fm-3m
JVASP-36829,CuBiO2,FAILED_JVASP-36829.cif,1.001,1.372,mBJ,0.371,-1.03726,,P2_1/m
JVASP-37693,Ge2O3,FAILED_JVASP-37693.cif,0.777,2.308,mBJ,1.531,-1.23497,,Pm-3m
JVASP-39028,Sm3Sc,FAILED_JVASP-39028.cif,0.0,0.0,mBJ,0.0,0.03678,,I4/mmm
JVASP-36785,HAuO2,FAILED_JVASP-36785.cif,0.832,1.105,mBJ,0.273,-0.45813,,P-1
JVASP-37639,Zn3CdS4,FAILED_JVASP-37639.cif,1.717,3.205,mBJ,1.488,-0.81809,,P-43m
JVASP-29296,MoPO5,FAILED_JVASP-29296.cif,0.0,0.0,mBJ,0.0,-2.14102,,P4/n
JVASP-30401,VOF3,FAILED_JVASP-30401.cif,2.81,3.15,mBJ,0.34,-2.71207,,P1
JVASP-36730,HC,FAILED_JVASP-36730.cif,3.387,3.946,mBJ,0.559,-0.02723,,C2/m
JVASP-38746,NaLu3,FAILED_JVASP-38746.cif,0.0,0.0,mBJ,0.0,0.33338,,I4/mmm
JVASP-40734,Li2VFeO4,FAILED_JVASP-40734.cif,0.0,0.0,mBJ,0.0,-2.04536,,I-4m2
JVASP-39458,PtRh3,FAILED_JVASP-39458.cif,0.0,0.0,mBJ,0.0,-0.01526,,I4/mmm
JVASP-38858,Zr2OsRu,FAILED_JVASP-38858.cif,0.0,0.0,mBJ,0.0,-0.67033,,Fm-3m
JVASP-37581,SrBr3,FAILED_JVASP-37581.cif,0.0,0.0,mBJ,0.0,-1.42691,,P6_3/mmc
JVASP-30114,MnO2,FAILED_JVASP-30114.cif,0.0,0.0,mBJ,0.0,-1.4658,,C2/m
JVASP-4720,PrAl2Ni3,FAILED_JVASP-4720.cif,0.0,0.0,mBJ,0.0,-0.56361,,P6/mmm
JVASP-29390,MgSiO3,FAILED_JVASP-29390.cif,4.111,5.853,mBJ,1.742,-2.91024,,P2_1/c
JVASP-39029,Sm3Ti,FAILED_JVASP-39029.cif,0.0,0.0,mBJ,0.0,0.22235,,I4/mmm
JVASP-40743,HfNiSn,FAILED_JVASP-40743.cif,0.375,0.388,mBJ,0.013,-0.64306,,F-43m
JVASP-4723,GeO2,FAILED_JVASP-4723.cif,1.675,3.323,mBJ,1.648,-1.73036,,Pbcn
JVASP-38092,Tl2InGaF6,FAILED_JVASP-38092.cif,2.492,2.904,mBJ,0.412,-2.23259,,Fm-3m
JVASP-38938,MgZr3,FAILED_JVASP-38938.cif,0.0,0.0,mBJ,0.0,0.02882,,P6_3/mmc
JVASP-38615,HfV2H4,FAILED_JVASP-38615.cif,0.0,0.0,mBJ,0.0,-0.30093,,I4_1/a
JVASP-36786,AgHgO2,FAILED_JVASP-36786.cif,0.0,0.0,mBJ,0.0,-0.19934,,P-1
JVASP-4325,LuSi2,FAILED_JVASP-4325.cif,0.0,0.0,mBJ,0.0,-0.36141,,P6/mmm
JVASP-4249,GaI3,FAILED_JVASP-4249.cif,1.971,2.924,mBJ,0.953,-0.45821,,P2_1/c
JVASP-37582,TmLuCo2,FAILED_JVASP-37582.cif,0.0,0.0,mBJ,0.0,-0.31773,,Fm-3m
JVASP-40763,KBaP,FAILED_JVASP-40763.cif,1.218,1.626,mBJ,0.408,-0.42513,,F-43m
JVASP-38939,Mg3Br,FAILED_JVASP-38939.cif,0.0,0.0,mBJ,0.0,-0.17877,,I4/mmm
JVASP-39030,Sm2MgRu,FAILED_JVASP-39030.cif,0.0,0.0,mBJ,0.0,-0.14424,,Fm-3m
JVASP-38616,Hf3Au,FAILED_JVASP-38616.cif,0.0,0.0,mBJ,0.0,-0.20637,,Pm-3m
JVASP-5818,GaPS4,FAILED_JVASP-5818.cif,2.082,3.076,mBJ,0.994,-0.44076,,P2_1/c
JVASP-128,PtSe2,FAILED_JVASP-128.cif,0.0,0.0,HSE,0.0,-0.3796,,P-3m1
JVASP-28816,WS2,FAILED_JVASP-28816.cif,0.781,1.37,mBJ,0.589,-0.87538,,P-3m1
JVASP-39031,USn,FAILED_JVASP-39031.cif,0.0,0.0,mBJ,0.0,0.0203,,P-6m2
JVASP-40764,ZrFeTe,FAILED_JVASP-40764.cif,1.213,1.259,mBJ,0.046,-0.56748,,F-43m
JVASP-5821,SI2O6,FAILED_JVASP-5821.cif,1.85,3.419,mBJ,1.569,-0.71437,,C2/c
JVASP-36830,CuBiO2,FAILED_JVASP-36830.cif,0.791,0.884,mBJ,0.093,-0.99773,,Immm
JVASP-38755,ThMgZn2,FAILED_JVASP-38755.cif,0.0,0.0,mBJ,0.0,-0.24528,,Fm-3m
JVASP-40766,ZrFeSe,FAILED_JVASP-40766.cif,0.394,0.74,mBJ,0.346,-0.6173,,F-43m
JVASP-31907,OsSe2Cl12,FAILED_JVASP-31907.cif,0.0,0.0,mBJ,0.0,-0.36923,,Fdd2
JVASP-30117,VO2,FAILED_JVASP-30117.cif,0.0,0.0,mBJ,0.0,-2.31668,,C2/m
JVASP-29721,In2Te5,FAILED_JVASP-29721.cif,0.727,1.129,mBJ,0.402,-0.20858,,Cc
JVASP-37920,PmHo3,FAILED_JVASP-37920.cif,0.0,0.0,mBJ,0.0,0.01627,,P6_3/mmc
JVASP-38863,MgScAg2,FAILED_JVASP-38863.cif,0.0,0.0,mBJ,0.0,-0.31616,,Fm-3m
JVASP-36788,KAuO2,FAILED_JVASP-36788.cif,1.489,2.006,mBJ,0.517,-0.93048,,Cmcm
JVASP-40767,ZrFeSb,FAILED_JVASP-40767.cif,0.0,0.0,mBJ,0.0,-0.46018,,F-43m
JVASP-29722,FeCl3,FAILED_JVASP-29722.cif,0.0,0.0,mBJ,0.0,-0.64931,,P312
JVASP-37645,Sc3P,FAILED_JVASP-37645.cif,0.0,0.0,mBJ,0.0,-0.5369,,I4/mmm
JVASP-38400,PrTm3,FAILED_JVASP-38400.cif,0.0,0.0,mBJ,0.0,0.01719,,P6_3/mmc
JVASP-29393,CrF2,FAILED_JVASP-29393.cif,0.0,0.0,mBJ,0.0,-1.86424,,Pnnm
JVASP-36831,BiAuO2,FAILED_JVASP-36831.cif,1.096,2.124,mBJ,1.028,-0.88434,,P2_1/m
JVASP-40768,FeSiW,FAILED_JVASP-40768.cif,0.32,0.403,mBJ,0.083,-0.48796,,F-43m
JVASP-36733,H2CO,FAILED_JVASP-36733.cif,2.133,4.198,mBJ,2.065,-0.34225,,C2/c
JVASP-40608,LiLuAu2,FAILED_JVASP-40608.cif,0.0,0.0,mBJ,0.0,-0.79676,,Fm-3m
JVASP-35249,Cu3O2,FAILED_JVASP-35249.cif,0.0,0.0,mBJ,0.0,-0.43373,,I4/mmm
JVASP-38623,NiAg3,FAILED_JVASP-38623.cif,0.0,0.0,mBJ,0.0,0.1676,,I4/mmm
JVASP-38864,MgNbRh2,FAILED_JVASP-38864.cif,0.0,0.0,mBJ,0.0,-0.50884,,Fm-3m
JVASP-30118,FeO2,FAILED_JVASP-30118.cif,0.0,0.0,mBJ,0.0,-1.17809,,R-3m
JVASP-32341,SeCl,FAILED_JVASP-32341.cif,1.852,3.124,mBJ,1.272,-0.16598,,P2_1/c
JVASP-37197,Mg3Mn,FAILED_JVASP-37197.cif,0.0,0.0,mBJ,0.0,0.21472,,Fm-3m
JVASP-35180,Sr4S3O,FAILED_JVASP-35180.cif,2.176,2.821,mBJ,0.645,-2.37267,,Pm-3m
JVASP-37198,Mg3Mn,FAILED_JVASP-37198.cif,0.0,0.0,mBJ,0.0,0.21896,,Pm-3m
JVASP-40770,YCdGa,FAILED_JVASP-40770.cif,0.0,0.0,mBJ,0.0,-0.02491,,F-43m
JVASP-36832,RbAgO2,FAILED_JVASP-36832.cif,0.805,1.107,mBJ,0.302,-0.81526,,Pmmm
JVASP-35250,Na2H6Ir,FAILED_JVASP-35250.cif,0.0,0.508,mBJ,0.508,-0.10765,,Fm-3m
JVASP-38865,MgScCd2,FAILED_JVASP-38865.cif,0.0,0.0,mBJ,0.0,-0.28657,,Fm-3m
JVASP-39037,SmTa3,FAILED_JVASP-39037.cif,0.0,0.0,mBJ,0.0,0.4458,,Fm-3m
JVASP-38100,Rb2NaTlCl6,FAILED_JVASP-38100.cif,1.786,3.22,mBJ,1.434,-1.51716,,Fm-3m
JVASP-40771,VFeTe,FAILED_JVASP-40771.cif,0.0,0.561,mBJ,0.561,-0.068,,F-43m
JVASP-37199,Mg3Mo,FAILED_JVASP-37199.cif,0.0,0.0,mBJ,0.0,0.2848,,Pm-3m
JVASP-37695,PrHo3,FAILED_JVASP-37695.cif,0.0,0.0,mBJ,0.0,0.02309,,I4/mmm
JVASP-38103,Rb2InGaF6,FAILED_JVASP-38103.cif,3.308,4.164,mBJ,0.856,-2.69906,,Fm-3m
JVASP-38627,NiAg3,FAILED_JVASP-38627.cif,0.0,0.0,mBJ,0.0,0.17395,,Pm-3m
JVASP-37330,TbB4Ir4,FAILED_JVASP-37330.cif,0.0,0.0,mBJ,0.0,-0.53675,,P4_2/n
JVASP-37649,Hg3Ir,FAILED_JVASP-37649.cif,0.0,0.0,mBJ,0.0,0.65757,,I4/mmm
JVASP-39038,SmY3,FAILED_JVASP-39038.cif,0.0,0.0,mBJ,0.0,0.01539,,I4/mmm
JVASP-35181,ZrSiO4,FAILED_JVASP-35181.cif,4.083,4.584,mBJ,0.501,-3.18273,,P2/c
JVASP-30119,MoO3,FAILED_JVASP-30119.cif,1.974,2.503,mBJ,0.529,-2.0861,,P2_1/m
JVASP-38115,Rb2NaInF6,FAILED_JVASP-38115.cif,5.587,8.277,mBJ,2.69,-2.91693,,Fm-3m
JVASP-39459,Rh2S3,FAILED_JVASP-39459.cif,0.463,0.387,mBJ,-0.076,-0.54964,,R-3c
JVASP-38405,PrH,FAILED_JVASP-38405.cif,0.0,0.0,mBJ,0.0,-0.3966,,P6_3mc
JVASP-37651,Lu2HgAu,FAILED_JVASP-37651.cif,0.0,0.0,mBJ,0.0,-0.65734,,Fm-3m
JVASP-37375,Th3Au,FAILED_JVASP-37375.cif,0.0,0.0,mBJ,0.0,-0.15506,,Pm-3m
JVASP-35182,Na8N3O,FAILED_JVASP-35182.cif,0.0,0.0,mBJ,0.0,-0.1193,,Pm-3m
JVASP-29297,UPbO4,FAILED_JVASP-29297.cif,1.591,1.537,mBJ,-0.054,-2.69166,,Pbcm
JVASP-31842,TiSCl6O,FAILED_JVASP-31842.cif,2.317,2.531,mBJ,0.214,-1.15217,,P-1
JVASP-37697,VIr,FAILED_JVASP-37697.cif,0.0,0.0,mBJ,0.0,-0.53528,,Cmcm
JVASP-35259,AlSb,FAILED_JVASP-35259.cif,0.0,0.0,mBJ,0.0,-0.02598,,Cmcm
JVASP-32414,SiCCl3F3,FAILED_JVASP-32414.cif,6.117,7.76,mBJ,1.643,-1.37174,,C2/m
JVASP-35183,Rb8NO3,FAILED_JVASP-35183.cif,0.0,0.0,mBJ,0.0,-0.71808,,Pm-3m
JVASP-30774,BiSbO5,FAILED_JVASP-30774.cif,0.081,0.522,mBJ,0.441,-0.90809,,P2_1/c
JVASP-39460,Rh3F,FAILED_JVASP-39460.cif,0.0,0.0,mBJ,0.0,0.12018,,I4/mmm
JVASP-39640,Sr2MgUO6,FAILED_JVASP-39640.cif,2.245,2.479,mBJ,0.234,-3.33641,,P2_1/c
JVASP-37271,Sm2MgIr,FAILED_JVASP-37271.cif,0.0,0.0,mBJ,0.0,-0.41601,,Fm-3m
JVASP-37207,SiPbO3,FAILED_JVASP-37207.cif,2.036,2.141,mBJ,0.105,-1.94982,,Pm-3m
JVASP-32108,Zr6BI12,FAILED_JVASP-32108.cif,0.0,1.081,mBJ,1.081,-1.0102,,R-3
JVASP-36792,AgPtO2,FAILED_JVASP-36792.cif,0.457,0.999,mBJ,0.542,-0.46076,,P2/m
JVASP-39641,VIrO3,FAILED_JVASP-39641.cif,0.0,0.0,mBJ,0.0,-0.3788,,Pm-3m
JVASP-30120,MoO3,FAILED_JVASP-30120.cif,1.151,1.522,mBJ,0.371,-2.03367,,Pc
JVASP-30780,MgTi3O7,FAILED_JVASP-30780.cif,2.884,3.455,mBJ,0.571,-3.0996,,Pnma
JVASP-36835,NaAuO2,FAILED_JVASP-36835.cif,1.351,1.94,mBJ,0.589,-0.92227,,C2/m
JVASP-33718,F,FAILED_JVASP-33718.cif,2.638,3.783,mBJ,1.145,0.0,,Cmce
JVASP-32345,MoCl4O,FAILED_JVASP-32345.cif,1.368,1.792,mBJ,0.424,-1.13086,,P-1
JVASP-37925,CaB2H8,FAILED_JVASP-37925.cif,5.106,6.639,mBJ,1.533,-0.38361,,P4_2/m
JVASP-30223,TiSnP2O8,FAILED_JVASP-30223.cif,2.058,4.582,mBJ,2.524,-2.35587,,P2_1/m
JVASP-36793,AgPtO2,FAILED_JVASP-36793.cif,0.211,0.458,mBJ,0.247,-0.44699,,C2/m
JVASP-35261,Na2Zn2Se3,FAILED_JVASP-35261.cif,1.574,3.091,mBJ,1.517,-0.91238,,C2/c
JVASP-37378,Tm2BeOs,FAILED_JVASP-37378.cif,0.0,0.0,mBJ,0.0,-0.2263,,Fm-3m
JVASP-38406,PrHo3,FAILED_JVASP-38406.cif,0.0,0.0,mBJ,0.0,0.02248,,P6_3/mmc
JVASP-35262,Na2Zn3Se4,FAILED_JVASP-35262.cif,1.505,3.196,mBJ,1.691,-0.79679,,Ibam
JVASP-37338,SnPbO3,FAILED_JVASP-37338.cif,1.222,2.756,mBJ,1.534,-1.50693,,Pm-3m
JVASP-37239,Si3Ag,FAILED_JVASP-37239.cif,0.0,0.0,mBJ,0.0,0.63716,,I4/mmm
JVASP-35263,Na2Zn2Se3,FAILED_JVASP-35263.cif,1.533,2.931,mBJ,1.398,-0.87282,,P4_32_12
JVASP-35184,Zn2SiO4,FAILED_JVASP-35184.cif,2.91,4.82,mBJ,1.91,-2.16421,,Pnma
JVASP-37395,Tm2CdHg,FAILED_JVASP-37395.cif,0.0,0.0,mBJ,0.0,-0.35216,,Fm-3m
JVASP-28563,Te2Mo3Se2S2,FAILED_JVASP-28563.cif,0.017,0.0,mBJ,-0.017,-0.56492,,Cm
JVASP-37714,NaCu3,FAILED_JVASP-37714.cif,0.0,0.0,mBJ,0.0,0.24346,,I4/mmm
JVASP-35185,Rb8PO3,FAILED_JVASP-35185.cif,0.0,0.0,mBJ,0.0,-0.83751,,Pm-3m
JVASP-37339,SrAcTl2,FAILED_JVASP-37339.cif,0.0,0.0,mBJ,0.0,-0.44258,,Fm-3m
JVASP-39042,SmSiAg,FAILED_JVASP-39042.cif,0.0,0.0,mBJ,0.0,-0.56556,,P-62m
JVASP-37930,BeIn3,FAILED_JVASP-37930.cif,0.0,0.0,mBJ,0.0,0.44576,,I4/mmm
JVASP-38133,LaWN3,FAILED_JVASP-38133.cif,0.818,1.126,mBJ,0.308,-1.28764,,R3m
JVASP-31829,CoSnH12O6F6,FAILED_JVASP-31829.cif,0.0,0.0,mBJ,0.0,-1.40562,,R-3
JVASP-36745,TiReN3,FAILED_JVASP-36745.cif,0.0,0.0,mBJ,0.0,-0.68262,,R3c
JVASP-37398,TiPd,FAILED_JVASP-37398.cif,0.0,0.0,mBJ,0.0,-0.5492,,P2_1/m
JVASP-37340,Sm3Tm,FAILED_JVASP-37340.cif,0.0,0.0,mBJ,0.0,0.01245,,I4/mmm
JVASP-36837,SrAuO2,FAILED_JVASP-36837.cif,1.606,1.862,mBJ,0.256,-1.72817,,C2/m
JVASP-36875,TlCuCl3,FAILED_JVASP-36875.cif,0.0,0.0,mBJ,0.0,-0.77439,,Pm-3m
JVASP-37931,CeDy3,FAILED_JVASP-37931.cif,0.0,0.0,mBJ,0.0,0.0884,,I4/mmm
JVASP-13762,PbS,FAILED_JVASP-13762.cif,1.293,1.285,mBJ,-0.008,-0.65589,,I4/mmm
JVASP-14089,GaCo2Ni,FAILED_JVASP-14089.cif,0.0,0.0,mBJ,0.0,-0.11054,,P4/mmm
JVASP-39044,SmYAg2,FAILED_JVASP-39044.cif,0.0,0.0,mBJ,0.0,-0.35337,,Fm-3m
JVASP-36795,BaAuO2,FAILED_JVASP-36795.cif,1.236,1.625,mBJ,0.389,-1.6316,,C2/m
JVASP-29728,YbBrO,FAILED_JVASP-29728.cif,0.0,0.0,mBJ,0.0,-2.18213,,P4/nmm
JVASP-37244,Sc3Pb,FAILED_JVASP-37244.cif,0.0,0.0,mBJ,0.0,-0.29495,,I4/mmm
JVASP-13886,CeS,FAILED_JVASP-13886.cif,0.0,0.0,mBJ,0.0,-2.14656,,Fm-3m
JVASP-35267,Na2ZnS2,FAILED_JVASP-35267.cif,2.378,4.279,mBJ,1.901,-1.09794,,P2_1/c