material_id,formula,cif_path,pbe_bandgap,hse_bandgap,gap_type,correction,formation_energy,total_energy,spacegroup
JVASP-18529,Tl2MoCl6,FAILED_JVASP-18529.cif,0.0,0.0,mBJ,0.0,-1.03728,,Fm-3m
JVASP-107184,KPb3,FAILED_JVASP-107184.cif,0.0,0.0,mBJ,0.0,-0.13074,,Pm-3m
JVASP-4633,CdPS3,FAILED_JVASP-4633.cif,1.808,4.176,mBJ,2.368,-0.45244,,R-3
JVASP-15723,CePPd,FAILED_JVASP-15723.cif,0.0,0.0,mBJ,0.0,-1.20856,,P6_3/mmc
JVASP-107070,Co2SiGe,FAILED_JVASP-107070.cif,0.0,0.0,mBJ,0.0,-0.32128,,P2_1
JVASP-42484,NaCr2O4,FAILED_JVASP-42484.cif,0.0,0.0,mBJ,0.0,-2.06223,,Fd-3m
JVASP-18881,BiO2,FAILED_JVASP-18881.cif,0.0,0.0,mBJ,0.0,-1.04917,,Fm-3m
JVASP-12181,As2Se3,FAILED_JVASP-12181.cif,1.136,2.009,mBJ,0.873,-0.10616,,P2_1/c
JVASP-2700,ThSeO,FAILED_JVASP-2700.cif,0.969,1.329,mBJ,0.36,-3.12254,,P4/nmm
JVASP-15521,YCo2Si2,FAILED_JVASP-15521.cif,0.0,0.0,mBJ,0.0,-0.80617,,I4/mmm
JVASP-3033,RbAuSe,FAILED_JVASP-3033.cif,1.966,2.936,mBJ,0.97,-0.78399,,Cmcm
JVASP-19840,NpTe,FAILED_JVASP-19840.cif,0.0,0.0,mBJ,0.0,-0.71696,,Fm-3m
JVASP-106687,YbErSe2,FAILED_JVASP-106687.cif,0.0,0.0,mBJ,0.0,-2.00096,,R-3m
JVASP-12984,NaErCl4,FAILED_JVASP-12984.cif,4.891,6.181,mBJ,1.29,-2.21856,,P2/c
JVASP-106920,Na3YI6,FAILED_JVASP-106920.cif,2.29,3.682,mBJ,1.392,-1.21091,,Fm-3m
JVASP-49902,Li2Ti3BiO8,FAILED_JVASP-49902.cif,0.0,0.0,mBJ,0.0,-2.66096,,R-3m
JVASP-15218,FeCuS2,FAILED_JVASP-15218.cif,0.0,0.0,mBJ,0.0,-0.33867,,I-42d
JVASP-106853,Ag2HgI4,FAILED_JVASP-106853.cif,0.9,1.602,mBJ,0.702,-0.2074,,I-42m
JVASP-107298,Ni6SnSb,FAILED_JVASP-107298.cif,0.0,0.0,mBJ,0.0,-0.14562,,Pmm2
JVASP-14689,Pr,FAILED_JVASP-14689.cif,0.0,0.0,mBJ,0.0,0.0,,P6_3/mmc
JVASP-104858,LiScRh2,FAILED_JVASP-104858.cif,0.0,0.0,mBJ,0.0,-0.66971,,Fm-3m
JVASP-105529,CeZnAgAs2,FAILED_JVASP-105529.cif,0.0,0.0,mBJ,0.0,-0.62544,,P3m1
JVASP-107138,Rb2NaIrF6,FAILED_JVASP-107138.cif,2.234,3.141,mBJ,0.907,-2.49109,,Fm-3m
JVASP-2253,Tm2SO2,FAILED_JVASP-2253.cif,3.208,4.733,mBJ,1.525,-3.48666,,P-3m1
JVASP-107016,ZnCdAu2,FAILED_JVASP-107016.cif,0.0,0.0,mBJ,0.0,-0.20903,,P4/mmm
JVASP-1660,RbSmS2,FAILED_JVASP-1660.cif,2.261,3.56,mBJ,1.299,-2.0149,,R-3m
JVASP-13333,Nd5AgSe8,FAILED_JVASP-13333.cif,1.462,1.715,mBJ,0.253,-1.76477,,I-4
JVASP-12880,NaSbCl6,FAILED_JVASP-12880.cif,1.86,3.196,mBJ,1.336,-0.99048,,P4_2/m
JVASP-1234,BaTiO3,FAILED_JVASP-1234.cif,1.749,2.169,mBJ,0.42,-3.35196,,P4mm
JVASP-102581,Y2TlIn,FAILED_JVASP-102581.cif,0.0,0.0,mBJ,0.0,-0.47026,,Fm-3m
JVASP-104591,LiMg2In,FAILED_JVASP-104591.cif,0.0,0.0,mBJ,0.0,-0.19651,,Fm-3m
JVASP-102628,TbP2Pd2,FAILED_JVASP-102628.cif,0.0,0.0,mBJ,0.0,-0.9164,,I4/mmm
JVASP-49856,K2Be2O3,FAILED_JVASP-49856.cif,3.686,6.437,mBJ,2.751,-2.30046,,P2_1/c
JVASP-107686,Pm2MgRu,FAILED_JVASP-107686.cif,0.0,0.0,mBJ,0.0,-0.13553,,Fm-3m
JVASP-107348,Er2Si3,FAILED_JVASP-107348.cif,0.0,0.0,mBJ,0.0,-0.58052,,Pmm2
JVASP-101885,SnH4C3O6,FAILED_JVASP-101885.cif,3.44,5.109,mBJ,1.669,-0.929,,P1
JVASP-106796,InPt,FAILED_JVASP-106796.cif,0.0,0.0,mBJ,0.0,-0.25793,,R-3m
JVASP-106746,Sm2O3,FAILED_JVASP-106746.cif,1.568,3.484,mBJ,1.916,-3.45121,,P-4m2
JVASP-107186,LiMg2Au,FAILED_JVASP-107186.cif,0.0,0.0,mBJ,0.0,-0.54397,,Fm-3m
JVASP-107637,AgBiS2,FAILED_JVASP-107637.cif,0.261,0.519,mBJ,0.258,-0.28353,,I4_1/amd
JVASP-107239,ZnCo,FAILED_JVASP-107239.cif,0.0,0.0,mBJ,0.0,0.03672,,P-6m2
JVASP-15586,CaMn2As2,FAILED_JVASP-15586.cif,0.0,0.0,mBJ,0.0,-0.46778,,P-3m1
JVASP-102530,MgAu3,FAILED_JVASP-102530.cif,0.0,0.0,mBJ,0.0,-0.43152,,Pm-3m
JVASP-105093,Cu2GeS4,FAILED_JVASP-105093.cif,0.0,0.0,mBJ,0.0,-0.28142,,I-42m
JVASP-2256,ZnSiAs2,FAILED_JVASP-2256.cif,0.881,1.852,mBJ,0.971,-0.18166,,I-42d
JVASP-106966,MgSnRu2,FAILED_JVASP-106966.cif,0.0,0.0,mBJ,0.0,-0.11259,,Fm-3m
JVASP-107461,LiZnCd2,FAILED_JVASP-107461.cif,0.0,0.0,mBJ,0.0,-0.19312,,Fm-3m
JVASP-12127,VOF3,FAILED_JVASP-12127.cif,3.138,3.465,mBJ,0.327,-2.72616,,P2_1/c
JVASP-2373,Ga2HgSe4,FAILED_JVASP-2373.cif,0.872,2.075,mBJ,1.203,-0.44452,,I-4
JVASP-105134,Cd3Ir,FAILED_JVASP-105134.cif,0.0,0.0,mBJ,0.0,0.06411,,Pm-3m
JVASP-106624,Yb2MgTl,FAILED_JVASP-106624.cif,0.0,0.0,mBJ,0.0,-0.33612,,Fm-3m
JVASP-104696,Sm2Si3Pd,FAILED_JVASP-104696.cif,0.0,0.0,mBJ,0.0,-0.8323,,Imm2
JVASP-104923,TaNbAl6,FAILED_JVASP-104923.cif,0.0,0.0,mBJ,0.0,-0.38095,,P4/mmm
JVASP-102629,ThSiIr,FAILED_JVASP-102629.cif,0.0,0.0,mBJ,0.0,-1.06083,,I4_1md
JVASP-104554,AlGaRu2,FAILED_JVASP-104554.cif,0.0,0.0,mBJ,0.0,-0.44977,,Fm-3m
JVASP-107511,TlPdPb,FAILED_JVASP-107511.cif,0.0,0.0,mBJ,0.0,-0.16493,,Fmmm
JVASP-105292,K2SnF6,FAILED_JVASP-105292.cif,5.325,8.287,mBJ,2.962,-2.84205,,Fm-3m
JVASP-107017,Zr2Se3S3,FAILED_JVASP-107017.cif,0.55,1.001,mBJ,0.451,-1.2115,,Pm
JVASP-107573,Cd2GaCuTe4,FAILED_JVASP-107573.cif,0.167,0.89,mBJ,0.723,-0.32718,,I-42m
JVASP-13066,IO2F,FAILED_JVASP-13066.cif,2.765,4.455,mBJ,1.69,-0.74086,,P2_12_12_1
JVASP-106482,Al2FeRh,FAILED_JVASP-106482.cif,0.0,0.0,mBJ,0.0,-0.71314,,Fm-3m
JVASP-13339,Nd2CdSe4,FAILED_JVASP-13339.cif,1.023,1.938,mBJ,0.915,-1.50261,,I-42d
JVASP-14736,SmGa2,FAILED_JVASP-14736.cif,0.0,0.0,mBJ,0.0,-0.68518,,P6/mmm
JVASP-104861,NaHg3,FAILED_JVASP-104861.cif,0.0,0.0,mBJ,0.0,-0.0484,,Pm-3m
JVASP-28456,MoW2Se6,FAILED_JVASP-28456.cif,1.14,1.34,mBJ,0.2,-0.56018,,P-6m2
JVASP-3999,Na4HgP2,FAILED_JVASP-3999.cif,0.942,1.868,mBJ,0.926,-0.37662,,R-3m
JVASP-15771,TiAlNi2,FAILED_JVASP-15771.cif,0.0,0.0,mBJ,0.0,-0.63998,,Fm-3m
JVASP-1169,ThO2,FAILED_JVASP-1169.cif,4.823,5.013,mBJ,0.19,-4.1762,,Fm-3m
JVASP-104161,H3C3S2N,FAILED_JVASP-104161.cif,0.58,1.627,mBJ,1.047,0.13551,,P1
JVASP-104646,ZnSiNi2,FAILED_JVASP-104646.cif,0.0,0.0,mBJ,0.0,-0.31002,,Fm-3m
JVASP-1663,TbRbS2,FAILED_JVASP-1663.cif,2.309,3.534,mBJ,1.225,-2.03627,,R-3m
JVASP-15375,SrAs2Ru2,FAILED_JVASP-15375.cif,0.0,0.0,mBJ,0.0,-0.65373,,I4/mmm
JVASP-104971,BeZn3O4,FAILED_JVASP-104971.cif,1.665,3.223,mBJ,1.558,-1.93387,,I-42m
JVASP-103702,LiSi,FAILED_JVASP-103702.cif,0.0,0.0,mBJ,0.0,0.05009,,Fd-3m
JVASP-15055,Ga2Au,FAILED_JVASP-15055.cif,0.0,0.0,mBJ,0.0,-0.21871,,Fm-3m
JVASP-105295,Rb3NdF6,FAILED_JVASP-105295.cif,4.508,8.712,mBJ,4.204,-3.32057,,I4/mmm
JVASP-106798,InSnTe2,FAILED_JVASP-106798.cif,0.0,0.0,mBJ,0.0,-0.30686,,R-3m
JVASP-105232,Pm2CdPb,FAILED_JVASP-105232.cif,0.0,0.0,mBJ,0.0,-0.47236,,Fm-3m
JVASP-14094,OsN2,FAILED_JVASP-14094.cif,0.0,0.0,mBJ,0.0,0.3972,,Pnnm
JVASP-2592,TaTl3S4,FAILED_JVASP-2592.cif,2.654,3.203,mBJ,0.549,-0.7643,,I-43m
JVASP-107018,ZnCu2SnSe2S2,FAILED_JVASP-107018.cif,0.081,0.173,mBJ,0.092,-0.45794,,Fmm2
JVASP-104697,Sm2CdSb4,FAILED_JVASP-104697.cif,0.0,0.0,mBJ,0.0,-0.70339,,P-4m2
JVASP-12941,ZrTe2Br5,FAILED_JVASP-12941.cif,0.98,1.17,mBJ,0.19,-0.95344,,C2/m
JVASP-19898,HoIr2,FAILED_JVASP-19898.cif,0.0,0.0,mBJ,0.0,-0.88265,,Fd-3m
JVASP-5683,GaTeI7,FAILED_JVASP-5683.cif,1.556,2.297,mBJ,0.741,-0.25238,,Pc
JVASP-16166,Ba3Al2Si2,FAILED_JVASP-16166.cif,0.0,0.0,mBJ,0.0,-0.4564,,Immm
JVASP-105365,Tm2Ga3Ni,FAILED_JVASP-105365.cif,0.0,0.0,mBJ,0.0,-0.66504,,Cm
JVASP-107638,MgV2O6,FAILED_JVASP-107638.cif,2.45,2.833,mBJ,0.383,-2.63326,,C2/m
JVASP-102583,YCdRh2,FAILED_JVASP-102583.cif,0.0,0.0,mBJ,0.0,-0.60142,,Fm-3m
JVASP-107349,Cu2S,FAILED_JVASP-107349.cif,0.132,0.502,mBJ,0.37,-0.15022,,C2/c
JVASP-107462,LiThPt2,FAILED_JVASP-107462.cif,0.0,0.0,mBJ,0.0,-1.02787,,Fm-3m
JVASP-1171,Na2S,FAILED_JVASP-1171.cif,2.59,4.971,mBJ,2.381,-1.21153,,Fm-3m
JVASP-107142,Rb2LiBiI6,FAILED_JVASP-107142.cif,1.912,2.48,mBJ,0.568,-1.06471,,Fm-3m
JVASP-16010,Ba2Cd,FAILED_JVASP-16010.cif,0.0,0.0,mBJ,0.0,-0.28169,,I4/mmm
JVASP-106696,YTmTe2,FAILED_JVASP-106696.cif,0.0,0.0,mBJ,0.0,-1.29757,,P4/mmm
JVASP-107242,HoSiOs2C,FAILED_JVASP-107242.cif,0.0,0.0,mBJ,0.0,-0.52154,,Cmcm
JVASP-102476,CuSnPd2,FAILED_JVASP-102476.cif,0.0,0.0,mBJ,0.0,-0.36432,,Fm-3m
JVASP-103886,TiH6C4O4,FAILED_JVASP-103886.cif,1.456,2.027,mBJ,0.571,-0.67942,,C2
JVASP-15172,TmCo2Si2,FAILED_JVASP-15172.cif,0.0,0.0,mBJ,0.0,-0.79235,,I4/mmm
JVASP-1447,NaErS2,FAILED_JVASP-1447.cif,2.359,3.302,mBJ,0.943,-2.01727,,R-3m
JVASP-104819,Rb2AlAgF6,FAILED_JVASP-104819.cif,3.187,5.27,mBJ,2.083,-3.00504,,Fm-3m
JVASP-13341,Al2CdO4,FAILED_JVASP-13341.cif,2.978,4.436,mBJ,1.458,-2.67653,,Fd-3m
JVASP-104593,LiSn3,FAILED_JVASP-104593.cif,0.0,0.0,mBJ,0.0,-0.15766,,I4/mmm
JVASP-106413,K3GaI6,FAILED_JVASP-106413.cif,0.729,1.744,mBJ,1.015,-0.98886,,Fm-3m
JVASP-2376,ZnSiP2,FAILED_JVASP-2376.cif,1.428,2.027,mBJ,0.599,-0.33862,,I-42d
JVASP-2820,KLiS,FAILED_JVASP-2820.cif,3.347,4.889,mBJ,1.542,-1.40079,,P4/nmm
JVASP-104699,Sc2Te3,FAILED_JVASP-104699.cif,0.041,0.283,mBJ,0.242,-1.25826,,Immm
JVASP-106625,Yb3P,FAILED_JVASP-106625.cif,0.0,0.0,mBJ,0.0,-0.55756,,Pm-3m
JVASP-106519,ErCdPt2,FAILED_JVASP-106519.cif,0.0,0.0,mBJ,0.0,-0.9193,,Fm-3m
JVASP-107189,LiThRh2,FAILED_JVASP-107189.cif,0.0,0.0,mBJ,0.0,-0.69511,,Fm-3m
JVASP-106748,Sm2Ga3Ni,FAILED_JVASP-106748.cif,0.0,0.0,mBJ,0.0,-0.65046,,Cm
JVASP-104925,SrAg3Pd2,FAILED_JVASP-104925.cif,0.0,0.0,mBJ,0.0,-0.3676,,P6/mmm
JVASP-104862,NaTlHg2,FAILED_JVASP-104862.cif,0.0,0.0,mBJ,0.0,-0.08802,,Fm-3m
JVASP-15219,HfGaNi2,FAILED_JVASP-15219.cif,0.0,0.0,mBJ,0.0,-0.56133,,Fm-3m
JVASP-14281,TbYb2PrS6,FAILED_JVASP-14281.cif,1.111,1.987,mBJ,0.876,-1.95633,,P2_1/m
JVASP-18934,HoNi2,FAILED_JVASP-18934.cif,0.0,0.0,mBJ,0.0,-0.5214,,Fd-3m
JVASP-1666,RbHoS2,FAILED_JVASP-1666.cif,2.336,3.544,mBJ,1.208,-2.0395,,R-3m
JVASP-102631,RhI3,FAILED_JVASP-102631.cif,0.911,1.143,mBJ,0.232,-0.28998,,C2/m
JVASP-107019,YbY2Se4,FAILED_JVASP-107019.cif,1.07,1.67,mBJ,0.6,-2.05448,,P2/m
JVASP-4513,GaAgP2Se6,FAILED_JVASP-4513.cif,0.362,1.269,mBJ,0.907,-0.18368,,P-31c
JVASP-102790,Cd2TeSe,FAILED_JVASP-102790.cif,0.279,1.362,mBJ,1.083,-0.49745,,P-4m2
JVASP-16110,NdAsPd,FAILED_JVASP-16110.cif,0.0,0.0,mBJ,0.0,-1.18314,,P6_3mc
JVASP-103703,Li2MgTl,FAILED_JVASP-103703.cif,0.0,0.0,mBJ,0.0,-0.27026,,F-43m
JVASP-105449,Mn2CdTe3,FAILED_JVASP-105449.cif,0.0,0.0,mBJ,0.0,-0.08179,,P-3m1
JVASP-28392,SiO2,FAILED_JVASP-28392.cif,5.116,6.243,mBJ,1.127,-2.59855,,Pn-3m
JVASP-106924,Rb2NaAuF6,FAILED_JVASP-106924.cif,0.572,1.807,mBJ,1.235,-2.26216,,Fm-3m
JVASP-4002,Na4Br2O,FAILED_JVASP-4002.cif,2.19,3.75,mBJ,1.56,-1.57861,,I4/mmm
JVASP-19065,Er2Sn2O7,FAILED_JVASP-19065.cif,2.879,4.38,mBJ,1.501,-2.79186,,Fd-3m
JVASP-107513,TiAl,FAILED_JVASP-107513.cif,0.0,0.0,mBJ,0.0,-0.25334,,P-6m2
JVASP-2823,K2CuP,FAILED_JVASP-2823.cif,1.248,1.777,mBJ,0.529,-0.44742,,Cmcm
JVASP-14690,HoAl2,FAILED_JVASP-14690.cif,0.0,0.0,mBJ,0.0,-0.53251,,Fd-3m
JVASP-22607,MoF6,FAILED_JVASP-22607.cif,4.151,4.697,mBJ,0.546,-2.54644,,Im-3m
JVASP-22734,KNbO3,FAILED_JVASP-22734.cif,1.526,2.054,mBJ,0.528,-2.67349,,Pm-3m
JVASP-2598,Mg3NF3,FAILED_JVASP-2598.cif,3.927,6.338,mBJ,2.411,-2.79107,,Pm-3m
JVASP-102477,DyTlRh2,FAILED_JVASP-102477.cif,0.0,0.0,mBJ,0.0,-0.56659,,Fm-3m
JVASP-104597,MgBi5,FAILED_JVASP-104597.cif,0.0,0.0,mBJ,0.0,0.07273,,R32
JVASP-106414,Li3TlF6,FAILED_JVASP-106414.cif,3.39,5.602,mBJ,2.212,-2.34517,,Fm-3m
JVASP-107144,Rb2TlAsI6,FAILED_JVASP-107144.cif,0.762,0.836,mBJ,0.074,-0.8149,,Fm-3m
JVASP-18604,ErPbAu,FAILED_JVASP-18604.cif,0.0,0.0,mBJ,0.0,-0.67853,,F-43m
JVASP-14282,Sn3F8,FAILED_JVASP-14282.cif,3.306,4.913,mBJ,1.607,-2.49727,,P2_1/c
JVASP-107074,CdNiO2,FAILED_JVASP-107074.cif,0.0,0.0,mBJ,0.0,-0.72236,,P4/mmm
JVASP-15095,PrGe2Rh2,FAILED_JVASP-15095.cif,0.0,0.0,mBJ,0.0,-0.86507,,I4/mmm
JVASP-13345,Pr2CdS4,FAILED_JVASP-13345.cif,1.652,2.709,mBJ,1.057,-1.71509,,I-42d
JVASP-19916,HgSe,FAILED_JVASP-19916.cif,0.0,0.0,mBJ,0.0,0.07304,,Fm-3m
JVASP-104926,SrCO3,FAILED_JVASP-104926.cif,4.598,7.248,mBJ,2.65,-2.37879,,R32
JVASP-18463,TiBr2,FAILED_JVASP-18463.cif,0.0,0.0,mBJ,0.0,-1.11189,,P-3m1
JVASP-107301,NbInPb2O6,FAILED_JVASP-107301.cif,2.673,3.748,mBJ,1.075,-1.88781,,Fm-3m
JVASP-104757,CaTm2Te4,FAILED_JVASP-104757.cif,0.615,1.086,mBJ,0.471,-1.51176,,P2/m
JVASP-106925,Rb2LiNdF6,FAILED_JVASP-106925.cif,6.832,9.031,mBJ,2.199,-3.48673,,Fm-3m
JVASP-2379,Pr2SeO2,FAILED_JVASP-2379.cif,2.323,3.618,mBJ,1.295,-3.16622,,P-3m1
JVASP-14762,SmMg2,FAILED_JVASP-14762.cif,0.0,0.0,mBJ,0.0,-0.08251,,Fd-3m
JVASP-104702,PrNdAl4,FAILED_JVASP-104702.cif,0.0,0.0,mBJ,0.0,-0.53113,,F-43m
JVASP-27509,Er3GaS6,FAILED_JVASP-27509.cif,2.066,2.995,mBJ,0.929,-1.86752,,Cmc2_1
JVASP-2259,YOF,FAILED_JVASP-2259.cif,5.232,6.508,mBJ,1.276,-4.14793,,R-3m
JVASP-107641,Ge2N2O,FAILED_JVASP-107641.cif,2.535,3.678,mBJ,1.143,-0.56656,,Imm2
JVASP-60,Te2Mo,FAILED_JVASP-60.cif,0.765,1.11,HSE,0.345,-0.24068,,P6_3/mmc
JVASP-4005,Na3ClO,FAILED_JVASP-4005.cif,2.261,4.704,mBJ,2.443,-1.61423,,Pm-3m
JVASP-106483,Al3Cu,FAILED_JVASP-106483.cif,0.0,0.0,mBJ,0.0,-0.04534,,Pm-3m
JVASP-102676,SrSmAlO4,FAILED_JVASP-102676.cif,3.575,4.869,mBJ,1.294,-3.44736,,I4mm
JVASP-44480,RbFeO2,FAILED_JVASP-44480.cif,0.0,0.0,mBJ,0.0,-1.42599,,Fd-3m
JVASP-2100,BaS2,FAILED_JVASP-2100.cif,1.625,2.593,mBJ,0.968,-1.57516,,C2/c
JVASP-1669,RbErS2,FAILED_JVASP-1669.cif,2.358,3.469,mBJ,1.111,-2.0402,,R-3m
JVASP-102632,Lu3GaC,FAILED_JVASP-102632.cif,0.0,0.0,mBJ,0.0,-0.59766,,Pm-3m
JVASP-2382,Ga2HgS4,FAILED_JVASP-2382.cif,1.533,2.831,mBJ,1.298,-0.55124,,I-4
JVASP-106568,NaTl2Sn,FAILED_JVASP-106568.cif,0.0,0.0,mBJ,0.0,-0.12352,,Fm-3m
JVASP-2262,ScCuO2,FAILED_JVASP-2262.cif,2.468,2.548,mBJ,0.08,-2.58465,,P6_3/mmc
JVASP-2826,NaLiS,FAILED_JVASP-2826.cif,3.34,4.781,mBJ,1.441,-1.35997,,P4/nmm
JVASP-104823,Rb2LiAsF6,FAILED_JVASP-104823.cif,4.677,5.563,mBJ,0.886,-2.75102,,Fm-3m
JVASP-52225,TiSnO4,FAILED_JVASP-52225.cif,1.843,2.311,mBJ,0.468,-2.48547,,Cm
JVASP-106973,PmHoRh2,FAILED_JVASP-106973.cif,0.0,0.0,mBJ,0.0,-0.84379,,Fm-3m
JVASP-106627,Yb2TlGa,FAILED_JVASP-106627.cif,0.0,0.0,mBJ,0.0,-0.56058,,Fm-3m
JVASP-106800,K3SO4F,FAILED_JVASP-106800.cif,5.1,8.641,mBJ,3.541,-2.19347,,P-43m
JVASP-2703,Na3Sb,FAILED_JVASP-2703.cif,0.51,1.395,mBJ,0.885,-0.49852,,P6_3/mmc
JVASP-102586,YTmTl2,FAILED_JVASP-102586.cif,0.0,0.0,mBJ,0.0,-0.36225,,Fm-3m
JVASP-2385,NaZnP,FAILED_JVASP-2385.cif,0.835,1.756,mBJ,0.921,-0.45915,,P4/nmm
JVASP-107577,Ca2Zn3Ga,FAILED_JVASP-107577.cif,0.0,0.0,mBJ,0.0,-0.45634,,Cm
JVASP-106749,SbTe,FAILED_JVASP-106749.cif,0.0,0.0,mBJ,0.0,0.00253,,Fm-3m
JVASP-104927,Sr2ZnAs2,FAILED_JVASP-104927.cif,0.0,0.0,mBJ,0.0,-0.93351,,P-6m2
JVASP-13348,CaAl2Se4,FAILED_JVASP-13348.cif,2.972,3.794,mBJ,0.822,-1.29178,,Cccm
JVASP-4516,SiO2,FAILED_JVASP-4516.cif,5.739,8.19,mBJ,2.451,-2.88548,,P4_32_12
JVASP-16078,V,FAILED_JVASP-16078.cif,0.0,0.0,mBJ,0.0,0.25133,,Fm-3m
JVASP-4149,Rb2Te5,FAILED_JVASP-4149.cif,0.22,0.765,mBJ,0.545,-0.5848,,C2/m
JVASP-19899,ZrCo2,FAILED_JVASP-19899.cif,0.0,0.0,mBJ,0.0,-0.36543,,Fd-3m
JVASP-15587,TlCo2S2,FAILED_JVASP-15587.cif,0.0,0.0,mBJ,0.0,-0.40258,,I4/mmm
JVASP-5686,CuSe2Br,FAILED_JVASP-5686.cif,0.666,0.792,mBJ,0.126,-0.20258,,P2_1/c
JVASP-106484,AlBi3,FAILED_JVASP-106484.cif,0.0,0.0,mBJ,0.0,0.21457,,Pm-3m
JVASP-105454,LiBH4,FAILED_JVASP-105454.cif,6.357,8.286,mBJ,1.929,-0.31518,,F-43m
JVASP-107691,SrSn3,FAILED_JVASP-107691.cif,0.0,0.0,mBJ,0.0,-0.45387,,P6_3/mmc
JVASP-19851,TiCo,FAILED_JVASP-19851.cif,0.0,0.0,mBJ,0.0,-0.41585,,Pm-3m
JVASP-52281,Mg3ZnO4,FAILED_JVASP-52281.cif,3.636,5.14,mBJ,1.504,-2.6218,,Cmmm
JVASP-12942,SrHgO2,FAILED_JVASP-12942.cif,2.467,3.382,mBJ,0.915,-1.76897,,P3_221
JVASP-107414,Rb2ScAgI6,FAILED_JVASP-107414.cif,2.037,2.538,mBJ,0.501,-1.18315,,Fm-3m
JVASP-2601,Li2PdO2,FAILED_JVASP-2601.cif,1.342,1.286,mBJ,-0.056,-1.53432,,Immm
JVASP-50883,TmHO2,FAILED_JVASP-50883.cif,4.916,7.149,mBJ,2.233,-2.84338,,Pnma
JVASP-106860,YAlN2,FAILED_JVASP-106860.cif,2.856,3.496,mBJ,0.64,-1.56399,,I-42d
JVASP-15473,TmSi2Cu2,FAILED_JVASP-15473.cif,0.0,0.0,mBJ,0.0,-0.52212,,I4/mmm
JVASP-104705,Pb2SeS,FAILED_JVASP-104705.cif,0.791,1.157,mBJ,0.366,-0.61858,,P4/mmm
JVASP-15420,TbSi2Ag2,FAILED_JVASP-15420.cif,0.0,0.0,mBJ,0.0,-0.35993,,I4/mmm
JVASP-107078,CaCdC2O6,FAILED_JVASP-107078.cif,3.572,5.938,mBJ,2.366,-1.92643,,R-3
JVASP-14286,Ti3PO2,FAILED_JVASP-14286.cif,0.0,0.0,mBJ,0.0,-1.96386,,P-3m1
JVASP-14737,ErPt2,FAILED_JVASP-14737.cif,0.0,0.0,mBJ,0.0,-1.13181,,Fd-3m
JVASP-107516,TePdSe,FAILED_JVASP-107516.cif,0.0,0.0,mBJ,0.0,-0.31809,,P3m1
JVASP-106801,Hf2Al3Ni,FAILED_JVASP-106801.cif,0.0,0.0,mBJ,0.0,-0.53277,,R-3m
JVASP-4008,K4Br2O,FAILED_JVASP-4008.cif,1.002,2.894,mBJ,1.892,-1.61365,,I4/mmm
JVASP-1672,RbTmS2,FAILED_JVASP-1672.cif,2.373,3.658,mBJ,1.285,-2.03908,,R-3m
JVASP-28418,Te2MoWSe2,FAILED_JVASP-28418.cif,0.348,0.305,mBJ,-0.043,-0.32166,,P-6m2
JVASP-104825,LiMnF4,FAILED_JVASP-104825.cif,0.001,0.241,mBJ,0.24,-2.75448,,Cmmm
JVASP-15071,TmSe,FAILED_JVASP-15071.cif,0.0,1.427,mBJ,1.427,-1.72396,,Fm-3m
JVASP-22531,Bi2SO2,FAILED_JVASP-22531.cif,0.935,1.732,mBJ,0.797,-1.11004,,Pnnm
JVASP-106521,Ga3As,FAILED_JVASP-106521.cif,0.0,0.0,mBJ,0.0,0.07464,,Pm-3m
JVASP-102792,Cd2InCuSe4,FAILED_JVASP-102792.cif,0.044,0.039,mBJ,-0.005,-0.49494,,Cm
JVASP-42216,Li2Co2OF6,FAILED_JVASP-42216.cif,0.082,0.0,mBJ,-0.082,-2.11091,,P-1
JVASP-28393,CdS,FAILED_JVASP-28393.cif,0.886,2.28,mBJ,1.394,-0.35854,,P3m1
JVASP-43161,Li2CoO2,FAILED_JVASP-43161.cif,0.0,0.0,mBJ,0.0,-1.51187,,P-3m1
JVASP-50835,LiCuS,FAILED_JVASP-50835.cif,1.202,2.095,mBJ,0.893,-0.79973,,P4/nmm
JVASP-22690,Ba2H6Os,FAILED_JVASP-22690.cif,1.938,2.471,mBJ,0.533,-0.57054,,Fm-3m
JVASP-1450,NdTlS2,FAILED_JVASP-1450.cif,1.71,2.206,mBJ,0.496,-1.5781,,R-3m
JVASP-107250,ErHSe,FAILED_JVASP-107250.cif,1.66,2.52,mBJ,0.86,-1.51594,,P-6m2
JVASP-51118,SrHf2Mo,FAILED_JVASP-51118.cif,0.0,0.0,mBJ,0.0,0.79406,,F-43m
JVASP-18806,Sc6Te2Rh,FAILED_JVASP-18806.cif,0.0,0.0,mBJ,0.0,-0.81925,,P-62m
JVASP-42894,Ti2AlTc,FAILED_JVASP-42894.cif,0.0,0.0,mBJ,0.0,-0.44969,,Fm-3m
JVASP-21243,NaTaO3,FAILED_JVASP-21243.cif,2.477,3.762,mBJ,1.285,-2.86603,,Cmcm
JVASP-104559,Ba2ZnIn,FAILED_JVASP-104559.cif,0.0,0.0,mBJ,0.0,-0.40465,,Fm-3m
JVASP-102587,YTmAg2,FAILED_JVASP-102587.cif,0.0,0.0,mBJ,0.0,-0.39093,,Fm-3m
JVASP-105102,TbOF,FAILED_JVASP-105102.cif,3.108,6.051,mBJ,2.943,-3.87036,,C2/m
JVASP-104652,ThBRh3,FAILED_JVASP-104652.cif,0.0,0.0,mBJ,0.0,-0.91069,,Pm-3m
JVASP-2829,NaPrO2,FAILED_JVASP-2829.cif,3.624,5.264,mBJ,1.64,-2.82575,,I4_1/amd
JVASP-1251,YbSe,FAILED_JVASP-1251.cif,2.052,3.496,mBJ,1.444,-2.21187,,Fm-3m
JVASP-106861,ZrCdN2,FAILED_JVASP-106861.cif,0.0,0.321,mBJ,0.321,-0.71715,,P4/nmm
JVASP-102480,Er2AgPt,FAILED_JVASP-102480.cif,0.0,0.0,mBJ,0.0,-0.88083,,Fm-3m
JVASP-107148,SrCu2GeS4,FAILED_JVASP-107148.cif,0.71,1.132,mBJ,0.422,-0.8649,,I-42m
JVASP-107695,Sm2TlIn,FAILED_JVASP-107695.cif,0.0,0.0,mBJ,0.0,-0.45715,,Fm-3m
JVASP-1489,NdCuO2,FAILED_JVASP-1489.cif,2.475,2.713,mBJ,0.238,-2.43561,,R-3m
JVASP-15808,SrCd2Sb2,FAILED_JVASP-15808.cif,0.0,0.534,mBJ,0.534,-0.5359,,P-3m1
JVASP-5296,CaH2,FAILED_JVASP-5296.cif,1.055,2.48,mBJ,1.425,-0.62355,,P6_3/mmc
JVASP-18948,SnPd3,FAILED_JVASP-18948.cif,0.0,0.0,mBJ,0.0,-0.47671,,Pm-3m
JVASP-18981,As2O5,FAILED_JVASP-18981.cif,1.731,3.092,mBJ,1.361,-1.10433,,P2_12_12_1
JVASP-51236,BaScIr,FAILED_JVASP-51236.cif,0.0,0.0,mBJ,0.0,0.80283,,F-43m
JVASP-107251,LiTaSe2,FAILED_JVASP-107251.cif,0.0,0.0,mBJ,0.0,-0.92901,,P-3m1
JVASP-15588,U2TeN2,FAILED_JVASP-15588.cif,0.0,0.0,mBJ,0.0,-1.47952,,I4/mmm
JVASP-107644,AgBiPd2,FAILED_JVASP-107644.cif,0.0,0.0,mBJ,0.0,-0.19212,,Fm-3m
JVASP-15072,NdP,FAILED_JVASP-15072.cif,0.0,0.0,mBJ,0.0,-1.63493,,Fm-3m
JVASP-16111,SmAsPd,FAILED_JVASP-16111.cif,0.0,0.0,mBJ,0.0,-1.18034,,P6_3mc
JVASP-21244,Hg3B2O6,FAILED_JVASP-21244.cif,2.605,3.423,mBJ,0.818,-1.29969,,R-3c
JVASP-106570,Nd2ZnRu,FAILED_JVASP-106570.cif,0.0,0.0,mBJ,0.0,-0.28838,,Fm-3m
JVASP-16138,PrNiC2,FAILED_JVASP-16138.cif,0.0,0.0,mBJ,0.0,-0.31599,,Amm2
JVASP-15293,ErSi2Os2,FAILED_JVASP-15293.cif,0.0,0.0,mBJ,0.0,-0.68384,,I4/mmm
JVASP-15725,RbTeAu,FAILED_JVASP-15725.cif,0.0,0.0,mBJ,0.0,-0.71001,,P6_3/mmc
JVASP-106486,AlCuRh2,FAILED_JVASP-106486.cif,0.0,0.0,mBJ,0.0,-0.53214,,Fm-3m
JVASP-56747,BaMn2Sb2,FAILED_JVASP-56747.cif,0.0,0.0,mBJ,0.0,-0.26412,,I4/mmm
JVASP-104976,AgPd,FAILED_JVASP-104976.cif,0.0,0.0,mBJ,0.0,-0.07502,,R-3m
JVASP-105371,TiB4Mo,FAILED_JVASP-105371.cif,0.0,0.0,mBJ,0.0,-0.66501,,P6/mmm
JVASP-107464,MgNi2,FAILED_JVASP-107464.cif,0.0,0.0,mBJ,0.0,-0.28025,,Fd-3m
JVASP-2050,YHSe,FAILED_JVASP-2050.cif,1.744,2.277,mBJ,0.533,-1.55306,,P-6m2
JVASP-15333,TmNi2Ge2,FAILED_JVASP-15333.cif,0.0,0.0,mBJ,0.0,-0.65973,,I4/mmm
JVASP-15630,YAgSn,FAILED_JVASP-15630.cif,0.0,0.0,mBJ,0.0,-0.63344,,P6_3mc