material_id,formula,cif_path,pbe_bandgap,hse_bandgap,gap_type,correction,formation_energy,total_energy,spacegroup
JVASP-68705,KSr2Be,FAILED_JVASP-68705.cif,0.0,0.0,mBJ,0.0,0.56973,,I-4m2
JVASP-68523,BeNiPb2,FAILED_JVASP-68523.cif,0.0,0.0,mBJ,0.0,0.58626,,I-4m2
JVASP-75486,NaLiAs,FAILED_JVASP-75486.cif,0.0,0.0,mBJ,0.0,-0.30343,,F-43m
JVASP-68275,BeFeRh2,FAILED_JVASP-68275.cif,0.0,0.0,mBJ,0.0,-0.1262,,I-4m2
JVASP-69870,Be2InRe,FAILED_JVASP-69870.cif,0.014,0.226,mBJ,0.212,0.23252,,I-4m2
JVASP-86827,Tl2HgGeTe4,FAILED_JVASP-86827.cif,0.31,0.696,mBJ,0.386,-0.15027,,I-42m
JVASP-68636,BeGeP2,FAILED_JVASP-68636.cif,0.0,0.0,mBJ,0.0,0.5671,,I-4m2
JVASP-3600,ZrIN,FAILED_JVASP-3600.cif,1.333,1.58,mBJ,0.247,-1.54348,,Pmmn
JVASP-17257,Cu2GeS4,FAILED_JVASP-17257.cif,0.0,0.0,mBJ,0.0,-0.2686,,I-42m
JVASP-69929,MgMnBe2,FAILED_JVASP-69929.cif,0.0,0.0,mBJ,0.0,0.20565,,P4mm
JVASP-1309,CaSe,FAILED_JVASP-1309.cif,2.137,2.882,mBJ,0.745,-2.17597,,Fm-3m
JVASP-1852,KYTe2,FAILED_JVASP-1852.cif,1.325,1.751,mBJ,0.426,-1.50203,,R-3m
JVASP-14796,CeIr2,FAILED_JVASP-14796.cif,0.0,0.0,mBJ,0.0,-0.82888,,Fd-3m
JVASP-68760,Be2TeRh2,FAILED_JVASP-68760.cif,0.0,0.0,mBJ,0.0,-0.01111,,I4/mmm
JVASP-72807,TiBe2Nb,FAILED_JVASP-72807.cif,0.0,0.0,mBJ,0.0,-0.0644,,I4/mmm
JVASP-22726,Na2TlSb,FAILED_JVASP-22726.cif,0.479,0.966,mBJ,0.487,-0.37477,,Fm-3m
JVASP-48251,Li2Ti2V3O10,FAILED_JVASP-48251.cif,0.0,0.0,mBJ,0.0,-2.6952,,P-1
JVASP-75628,ReTeAs,FAILED_JVASP-75628.cif,0.0,0.0,mBJ,0.0,0.42791,,F-43m
JVASP-68462,Sr2BeP,FAILED_JVASP-68462.cif,0.0,0.0,mBJ,0.0,-0.08627,,I-4m2
JVASP-67647,BeSiBr,FAILED_JVASP-67647.cif,0.0,0.0,mBJ,0.0,0.24624,,I4mm
JVASP-68214,BeCrTe2,FAILED_JVASP-68214.cif,0.0,0.0,mBJ,0.0,0.08177,,P4mm
JVASP-3783,Ca3AsBr3,FAILED_JVASP-3783.cif,1.565,2.176,mBJ,0.611,-1.90693,,Pm-3m
JVASP-75597,ZrMn2As,FAILED_JVASP-75597.cif,0.0,0.0,mBJ,0.0,0.05003,,F-43m
JVASP-67773,CaBeBr,FAILED_JVASP-67773.cif,0.0,0.0,mBJ,0.0,-0.28063,,I4mm
JVASP-48720,NaNi2O3,FAILED_JVASP-48720.cif,0.0,0.0,mBJ,0.0,-1.14321,,C2/m
JVASP-14598,Y,FAILED_JVASP-14598.cif,0.0,0.0,mBJ,0.0,1e-05,,P6_3/mmc
JVASP-51292,MnAlTc,FAILED_JVASP-51292.cif,0.0,0.0,mBJ,0.0,0.49193,,F-43m
JVASP-68017,BeCoRh2,FAILED_JVASP-68017.cif,0.0,0.0,mBJ,0.0,-0.11417,,I-4m2
JVASP-92246,EuAgO2,FAILED_JVASP-92246.cif,2.719,3.256,mBJ,0.537,-2.39978,,P6_3/mmc
JVASP-85998,AuCClO,FAILED_JVASP-85998.cif,2.758,3.28,mBJ,0.522,-0.44867,,Cmcm
JVASP-86427,K2UO4,FAILED_JVASP-86427.cif,2.112,2.068,mBJ,-0.044,-2.87453,,I4/mmm
JVASP-75781,MgAsIr2,FAILED_JVASP-75781.cif,0.0,0.0,mBJ,0.0,0.14009,,F-43m
JVASP-18441,U2BiN2,FAILED_JVASP-18441.cif,0.0,0.0,mBJ,0.0,-1.26211,,I4/mmm
JVASP-74129,BeCu2Br,FAILED_JVASP-74129.cif,0.0,0.0,mBJ,0.0,0.27573,,P4mm
JVASP-68342,BeBiCl2,FAILED_JVASP-68342.cif,0.0,0.0,mBJ,0.0,0.22954,,I-4m2
JVASP-75487,MoAsIr2,FAILED_JVASP-75487.cif,0.0,0.0,mBJ,0.0,0.1835,,F-43m
JVASP-70279,Be2NbBr,FAILED_JVASP-70279.cif,0.0,0.0,mBJ,0.0,0.7808,,I4/mmm
JVASP-39306,KV5Se8,FAILED_JVASP-39306.cif,0.0,0.0,mBJ,0.0,-0.8168,,C2/m
JVASP-67574,BeGeTe,FAILED_JVASP-67574.cif,0.0,0.0,mBJ,0.0,0.45256,,I4mm
JVASP-67730,LiBeCo,FAILED_JVASP-67730.cif,0.0,0.0,mBJ,0.0,0.04201,,I4mm
JVASP-70109,Be2CoCl,FAILED_JVASP-70109.cif,0.0,0.0,mBJ,0.0,0.54483,,I4/mmm
JVASP-86554,HgCSO3F3,FAILED_JVASP-86554.cif,3.362,4.648,mBJ,1.286,-1.20003,,P-1
JVASP-75631,ZrZnAs,FAILED_JVASP-75631.cif,0.008,0.0,mBJ,-0.008,0.08827,,F-43m
JVASP-74135,BeV2Co,FAILED_JVASP-74135.cif,0.0,0.0,mBJ,0.0,-0.08444,,P4mm
JVASP-75567,Nb2CoAs,FAILED_JVASP-75567.cif,0.025,0.0,mBJ,-0.025,0.17733,,F-43m
JVASP-67895,BeTc2Ni,FAILED_JVASP-67895.cif,0.0,0.0,mBJ,0.0,-0.03174,,I-4m2
JVASP-21215,S,FAILED_JVASP-21215.cif,1.957,2.965,mBJ,1.008,0.0,,P3_221
JVASP-67849,BeMoRu2,FAILED_JVASP-67849.cif,0.0,0.0,mBJ,0.0,0.03064,,P4mm
JVASP-74046,ScBeZn,FAILED_JVASP-74046.cif,0.0,0.0,mBJ,0.0,-0.23289,,P-6m2
JVASP-67810,BeNbCr,FAILED_JVASP-67810.cif,0.0,0.0,mBJ,0.0,0.25125,,I4mm
JVASP-73958,BeNb2Br,FAILED_JVASP-73958.cif,0.0,0.0,mBJ,0.0,0.22883,,P4mm
JVASP-43813,Li2MnCo3O8,FAILED_JVASP-43813.cif,0.0,0.0,mBJ,0.0,-1.57553,,C2/m
JVASP-3294,K3Cu3As2,FAILED_JVASP-3294.cif,1.363,1.552,mBJ,0.189,-0.38482,,R-3m
JVASP-48497,NaMnO4,FAILED_JVASP-48497.cif,1.748,2.086,mBJ,0.338,-1.57847,,Cmcm
JVASP-68078,NaBeRh2,FAILED_JVASP-68078.cif,0.0,0.0,mBJ,0.0,0.29364,,I-4m2
JVASP-67608,BeInCl,FAILED_JVASP-67608.cif,0.0,0.0,mBJ,0.0,0.05004,,I4mm
JVASP-68215,BeRu2Rh,FAILED_JVASP-68215.cif,0.0,0.0,mBJ,0.0,0.031,,I-4m2
JVASP-68707,TiBe2Pb,FAILED_JVASP-68707.cif,0.0,0.0,mBJ,0.0,0.3648,,P4/mmm
JVASP-68164,BeTc2Pd,FAILED_JVASP-68164.cif,0.0,0.0,mBJ,0.0,0.08173,,I-4m2
JVASP-68831,BeZnGa,FAILED_JVASP-68831.cif,0.0,0.0,mBJ,0.0,0.23029,,P3m1
JVASP-70351,BePdW,FAILED_JVASP-70351.cif,0.0,0.0,mBJ,0.0,-0.05172,,P3m1
JVASP-67775,BePCl,FAILED_JVASP-67775.cif,0.0,0.0,mBJ,0.0,0.18862,,I4mm
JVASP-90807,NaAsF6,FAILED_JVASP-90807.cif,5.178,7.014,mBJ,1.836,-2.42171,,R-3
JVASP-85355,Ba3Nb2CoO9,FAILED_JVASP-85355.cif,0.0,0.0,mBJ,0.0,-2.80796,,P-3m1
JVASP-92192,LiMg3O4,FAILED_JVASP-92192.cif,0.0,0.0,mBJ,0.0,-2.57952,,Pm-3m
JVASP-3351,RbYTe2,FAILED_JVASP-3351.cif,1.381,1.75,mBJ,0.369,-1.48999,,P6_3/mmc
JVASP-75783,AsOsBr,FAILED_JVASP-75783.cif,0.0,0.0,mBJ,0.0,1.88957,,F-43m
JVASP-52356,BaSrO2,FAILED_JVASP-52356.cif,2.269,3.728,mBJ,1.459,-2.82633,,P4/mmm
JVASP-69735,Be2ZnW,FAILED_JVASP-69735.cif,0.0,0.0,mBJ,0.0,0.13779,,I-4m2
JVASP-22680,K2H4Pd,FAILED_JVASP-22680.cif,2.872,2.908,mBJ,0.036,-0.32612,,I4/mmm
JVASP-48122,Fe2O3F,FAILED_JVASP-48122.cif,0.0,0.0,mBJ,0.0,-1.54243,,Imma
JVASP-70027,BeFe2Si2,FAILED_JVASP-70027.cif,0.0,0.0,mBJ,0.0,0.10722,,I4/mmm
JVASP-14967,NbB,FAILED_JVASP-14967.cif,0.0,0.0,mBJ,0.0,-0.72785,,Cmcm
JVASP-48915,Li2MnOF3,FAILED_JVASP-48915.cif,0.0,0.0,mBJ,0.0,-2.61551,,Pmc2_1
JVASP-70651,MgBe2Os,FAILED_JVASP-70651.cif,0.0,0.0,mBJ,0.0,0.0198,,I-4m2
JVASP-75601,AsWBr,FAILED_JVASP-75601.cif,0.0,0.0,mBJ,0.0,1.63062,,F-43m
JVASP-15311,SmCo2B2,FAILED_JVASP-15311.cif,0.0,0.0,mBJ,0.0,-0.55192,,I4/mmm
JVASP-69475,MnBe2V,FAILED_JVASP-69475.cif,0.0,0.0,mBJ,0.0,-0.02716,,I-4m2
JVASP-53954,HCN,FAILED_JVASP-53954.cif,6.526,7.722,mBJ,1.196,0.30048,,I4mm
JVASP-76199,Rb3Os,FAILED_JVASP-76199.cif,0.0,0.0,mBJ,0.0,1.26404,,Pm-3m
JVASP-50815,Li5InO4,FAILED_JVASP-50815.cif,2.785,4.816,mBJ,2.031,-1.92118,,Pmmn
JVASP-67731,ScBeTc2,FAILED_JVASP-67731.cif,0.0,0.0,mBJ,0.0,-0.1172,,F-43m
JVASP-67951,BeNiPd2,FAILED_JVASP-67951.cif,0.0,0.0,mBJ,0.0,-0.1261,,I-4m2
JVASP-67850,NaBeMo,FAILED_JVASP-67850.cif,0.0,0.0,mBJ,0.0,0.57707,,I4mm
JVASP-69941,Be2InSn,FAILED_JVASP-69941.cif,0.0,0.0,mBJ,0.0,0.66468,,I-4m2
JVASP-85702,SrAl2H2,FAILED_JVASP-85702.cif,0.0,0.0,mBJ,0.0,-0.41455,,P-3m1
JVASP-70731,Be2TlMo,FAILED_JVASP-70731.cif,0.0,0.0,mBJ,0.0,0.73062,,I4/mmm
JVASP-67811,ZrBe2Pd,FAILED_JVASP-67811.cif,0.0,0.0,mBJ,0.0,-0.05278,,P4/mmm
JVASP-75717,ReAsAu,FAILED_JVASP-75717.cif,0.0,0.0,mBJ,0.0,1.36494,,F-43m
JVASP-68469,Be2CrCd,FAILED_JVASP-68469.cif,0.0,0.0,mBJ,0.0,0.32195,,P4/mmm
JVASP-74137,BeInRh2,FAILED_JVASP-74137.cif,0.0,0.0,mBJ,0.0,-0.19115,,P4mm
JVASP-75858,Sc2FeAs,FAILED_JVASP-75858.cif,0.0,0.136,mBJ,0.136,-0.21907,,F-43m
JVASP-70806,HfBeP,FAILED_JVASP-70806.cif,0.0,0.0,mBJ,0.0,-0.66223,,P-6m2
JVASP-3198,ErAgTe2,FAILED_JVASP-3198.cif,0.897,1.281,mBJ,0.384,-0.91149,,P-42_1m
JVASP-68834,Ca2BeBi,FAILED_JVASP-68834.cif,0.0,0.0,mBJ,0.0,-0.07928,,I-4m2
JVASP-68763,Y2BeSn,FAILED_JVASP-68763.cif,0.0,0.0,mBJ,0.0,-0.17164,,I-4m2
JVASP-68021,BeGaMo2,FAILED_JVASP-68021.cif,0.0,0.0,mBJ,0.0,0.10574,,I-4m2
JVASP-44268,Li4VTe3O12,FAILED_JVASP-44268.cif,0.041,1.39,mBJ,1.349,-1.69075,,P2
JVASP-69566,Be2TcIr,FAILED_JVASP-69566.cif,0.0,0.0,mBJ,0.0,-0.23008,,Fm-3m
JVASP-68217,Mg2BeFe,FAILED_JVASP-68217.cif,0.0,0.0,mBJ,0.0,0.3271,,I-4m2
JVASP-68588,MgBe2Ru,FAILED_JVASP-68588.cif,0.0,0.0,mBJ,0.0,-0.15034,,P4/mmm
JVASP-70842,LiSc2Be,FAILED_JVASP-70842.cif,0.0,0.0,mBJ,0.0,0.16846,,P4mm
JVASP-75678,CdAsIr,FAILED_JVASP-75678.cif,0.0,0.0,mBJ,0.0,0.80768,,F-43m
JVASP-75785,TaAsIr2,FAILED_JVASP-75785.cif,0.0,0.0,mBJ,0.0,0.03897,,F-43m
JVASP-15536,LuSnAu,FAILED_JVASP-15536.cif,0.01,0.048,mBJ,0.038,-0.83049,,F-43m
JVASP-1339,K2Te,FAILED_JVASP-1339.cif,2.187,3.951,mBJ,1.764,-1.10795,,Fm-3m
JVASP-67776,NaBeTc2,FAILED_JVASP-67776.cif,0.0,0.0,mBJ,0.0,0.29467,,P4mm
JVASP-67576,BeGaCu,FAILED_JVASP-67576.cif,0.0,0.0,mBJ,0.0,0.1329,,I4mm
JVASP-3789,CaTiF6,FAILED_JVASP-3789.cif,4.613,4.989,mBJ,0.376,-3.76364,,Fm-3m
JVASP-70876,Sc2BeCl,FAILED_JVASP-70876.cif,0.0,0.0,mBJ,0.0,-0.31115,,P4mm
JVASP-15601,HoCr2Si2,FAILED_JVASP-15601.cif,0.0,0.0,mBJ,0.0,-0.38484,,I4/mmm
JVASP-70208,TiBe2Ni,FAILED_JVASP-70208.cif,0.0,0.0,mBJ,0.0,-0.10597,,P4/mmm
JVASP-3297,K3Ag3As2,FAILED_JVASP-3297.cif,1.186,1.744,mBJ,0.558,-0.41178,,R-3m
JVASP-67851,BeNb2Cu,FAILED_JVASP-67851.cif,0.0,0.0,mBJ,0.0,0.23778,,P4mm
JVASP-90623,BaCdAsF,FAILED_JVASP-90623.cif,0.887,1.719,mBJ,0.832,-1.96031,,P4/nmm
JVASP-43815,Fe2O2F3,FAILED_JVASP-43815.cif,0.0,0.0,mBJ,0.0,-1.75651,,Cc
JVASP-75750,Ni2HgAs,FAILED_JVASP-75750.cif,0.0,0.0,mBJ,0.0,0.47596,,F-43m
JVASP-48124,Li2VO2F,FAILED_JVASP-48124.cif,0.0,0.0,mBJ,0.0,-2.61195,,C2/m
JVASP-85919,KCBrN2O4,FAILED_JVASP-85919.cif,2.017,2.425,mBJ,0.408,-0.43159,,P-1
JVASP-70114,BeSi2Ru2,FAILED_JVASP-70114.cif,0.0,0.0,mBJ,0.0,0.05344,,I4/mmm
JVASP-68082,Mg2BeCo,FAILED_JVASP-68082.cif,0.0,0.0,mBJ,0.0,0.19347,,I-4m2
JVASP-22728,Ca2SnS4,FAILED_JVASP-22728.cif,0.944,2.102,mBJ,1.158,-1.52159,,Cmmm
JVASP-88330,BH2OF3,FAILED_JVASP-88330.cif,8.097,11.885,mBJ,3.788,-2.14112,,P2_1/c
JVASP-70911,ScTaBe2,FAILED_JVASP-70911.cif,0.0,0.0,mBJ,0.0,-0.00418,,P4/mmm
JVASP-3420,InAgS2,FAILED_JVASP-3420.cif,0.293,1.615,mBJ,1.322,-0.4583,,I-42d
JVASP-67732,BeCrRu2,FAILED_JVASP-67732.cif,0.0,0.0,mBJ,0.0,-0.00644,,P4mm
JVASP-3603,NdClO,FAILED_JVASP-3603.cif,4.721,5.956,mBJ,1.235,-3.25355,,P4/nmm
JVASP-70877,Mn2BeBi,FAILED_JVASP-70877.cif,0.0,0.0,mBJ,0.0,0.46229,,P4mm
JVASP-67650,NaBeGa,FAILED_JVASP-67650.cif,0.0,0.0,mBJ,0.0,0.2922,,I4mm
JVASP-42636,LiScVO4,FAILED_JVASP-42636.cif,0.0,0.0,mBJ,0.0,-2.91818,,Imma
JVASP-69659,Be2VIn,FAILED_JVASP-69659.cif,0.0,0.0,mBJ,0.0,0.20286,,P4/mmm
JVASP-48257,Li8Co5O10,FAILED_JVASP-48257.cif,0.0,0.0,mBJ,0.0,-1.59596,,P-1
JVASP-15353,UGe2Pd2,FAILED_JVASP-15353.cif,0.0,0.0,mBJ,0.0,-0.41437,,I4/mmm
JVASP-75679,VMo2As,FAILED_JVASP-75679.cif,0.0,0.0,mBJ,0.0,0.13817,,F-43m
JVASP-70432,Be2NiPd,FAILED_JVASP-70432.cif,0.0,0.0,mBJ,0.0,-0.30536,,P4mm
JVASP-85433,CaFeClO2,FAILED_JVASP-85433.cif,0.0,0.0,mBJ,0.0,-1.89094,,Cm
JVASP-74139,BeCr2Co,FAILED_JVASP-74139.cif,0.0,0.0,mBJ,0.0,0.00712,,P4mm
JVASP-69568,MgBe2Tc,FAILED_JVASP-69568.cif,0.0,0.0,mBJ,0.0,0.14392,,I-4m2
JVASP-69482,BeGa2Pd2,FAILED_JVASP-69482.cif,0.0,0.0,mBJ,0.0,-0.05626,,I4/mmm
JVASP-67954,BeV2Os,FAILED_JVASP-67954.cif,0.0,0.0,mBJ,0.0,-0.09024,,I-4m2
JVASP-70989,CaBeGe,FAILED_JVASP-70989.cif,0.0,0.0,mBJ,0.0,-0.4915,,P-6m2
JVASP-86148,DyFe2B2,FAILED_JVASP-86148.cif,0.0,0.0,mBJ,0.0,-0.49345,,I4/mmm
JVASP-44008,Ni3OF5,FAILED_JVASP-44008.cif,0.004,0.0,mBJ,-0.004,-1.56941,,P-1
JVASP-90808,Be2BO5,FAILED_JVASP-90808.cif,0.0,0.0,mBJ,0.0,-1.84959,,C2
JVASP-71092,Sc2BeRh,FAILED_JVASP-71092.cif,0.0,0.0,mBJ,0.0,-0.40992,,P4mm
JVASP-90852,AlPt3,FAILED_JVASP-90852.cif,0.0,0.0,mBJ,0.0,-0.70061,,I4/mcm
JVASP-67613,Na2BeCo,FAILED_JVASP-67613.cif,0.0,0.0,mBJ,0.0,0.74471,,F-43m
JVASP-91742,BaMg4Ge3,FAILED_JVASP-91742.cif,0.0,0.0,mBJ,0.0,-0.47451,,P4/mmm
JVASP-51455,TiGaFe2,FAILED_JVASP-51455.cif,0.0,0.0,mBJ,0.0,-0.39309,,Fm-3m
JVASP-70115,HfBeCu,FAILED_JVASP-70115.cif,0.0,0.0,mBJ,0.0,-0.12177,,P-6m2
JVASP-4846,PtN,FAILED_JVASP-4846.cif,0.0,0.0,mBJ,0.0,1.215,,P6_3/mmc
JVASP-52899,H2O,FAILED_JVASP-52899.cif,5.594,7.423,mBJ,1.829,-0.98029,,I4_1/amd
JVASP-76200,Rb3Pt,FAILED_JVASP-76200.cif,0.0,0.575,mBJ,0.575,0.0662,,Pm-3m
JVASP-87037,CaSnF6,FAILED_JVASP-87037.cif,5.515,8.149,mBJ,2.634,-3.15212,,Fm-3m
JVASP-71023,LiSc2Be,FAILED_JVASP-71023.cif,0.0,0.0,mBJ,0.0,0.16903,,P4mm
JVASP-68220,Sc2BeCo,FAILED_JVASP-68220.cif,0.0,0.0,mBJ,0.0,-0.03336,,F-43m
JVASP-70035,MnBe2Se,FAILED_JVASP-70035.cif,0.0,0.0,mBJ,0.0,0.25478,,I-4m2
JVASP-70657,Be2TlPd,FAILED_JVASP-70657.cif,0.0,0.0,mBJ,0.0,0.24713,,Fm-3m
JVASP-68472,BeRh2Cl,FAILED_JVASP-68472.cif,0.0,0.0,mBJ,0.0,0.41754,,I-4m2
JVASP-14798,MnB2,FAILED_JVASP-14798.cif,0.0,0.0,mBJ,0.0,-0.23327,,P6/mmm
JVASP-14968,TiSi2,FAILED_JVASP-14968.cif,0.0,0.0,mBJ,0.0,-0.43878,,Fddd
JVASP-68282,HfMn2Be,FAILED_JVASP-68282.cif,0.0,0.0,mBJ,0.0,0.1333,,I-4m2
JVASP-18406,SmH2,FAILED_JVASP-18406.cif,0.0,0.544,mBJ,0.544,-0.70459,,Fm-3m
JVASP-75680,Be2AsCl,FAILED_JVASP-75680.cif,0.0,0.0,mBJ,0.0,0.912,,F-43m
JVASP-1795,RbYO2,FAILED_JVASP-1795.cif,3.793,5.253,mBJ,1.46,-2.98914,,R-3m
JVASP-3606,Rb2SnCl6,FAILED_JVASP-3606.cif,2.22,3.736,mBJ,1.516,-1.5629,,Fm-3m
JVASP-75833,LiHfAs,FAILED_JVASP-75833.cif,0.0,0.0,mBJ,0.0,-0.0021,,F-43m
JVASP-70845,BeV2Fe,FAILED_JVASP-70845.cif,0.0,0.0,mBJ,0.0,-0.09206,,P4mm
JVASP-67899,BeCuPt2,FAILED_JVASP-67899.cif,0.0,0.0,mBJ,0.0,-0.18732,,I-4m2
JVASP-22681,CsCaH3,FAILED_JVASP-22681.cif,3.547,5.008,mBJ,1.461,-0.53493,,Pm-3m
JVASP-3423,KInTe2,FAILED_JVASP-3423.cif,1.115,1.794,mBJ,0.679,-0.74688,,I4/mcm
JVASP-70506,Be2FeBr,FAILED_JVASP-70506.cif,0.0,0.0,mBJ,0.0,0.45333,,P4mm
JVASP-70879,KBe2Pt,FAILED_JVASP-70879.cif,0.0,0.0,mBJ,0.0,0.65001,,P4/mmm
JVASP-69576,Be2BiMo,FAILED_JVASP-69576.cif,0.0,0.0,mBJ,0.0,0.54245,,I-4m2
JVASP-70434,Be2CuBr,FAILED_JVASP-70434.cif,0.0,0.0,mBJ,0.0,0.80649,,P4/mmm
JVASP-70810,BeCo4Sb,FAILED_JVASP-70810.cif,0.0,0.0,mBJ,0.0,0.32562,,F-43m
JVASP-15986,ZrSiO,FAILED_JVASP-15986.cif,0.0,0.0,mBJ,0.0,-1.90397,,P4/nmm
JVASP-69948,Be2CoRu,FAILED_JVASP-69948.cif,0.0,0.0,mBJ,0.0,-0.20774,,P4/mmm
JVASP-20092,CdO,FAILED_JVASP-20092.cif,0.0,1.306,mBJ,1.306,-1.17119,,Fm-3m
JVASP-75790,ZrAsCl,FAILED_JVASP-75790.cif,0.0,0.0,mBJ,0.0,-0.19789,,F-43m
JVASP-92248,YbNaO2,FAILED_JVASP-92248.cif,0.0,0.0,mBJ,0.0,-2.27911,,I4_1/amd
JVASP-91464,S,FAILED_JVASP-91464.cif,2.185,3.236,mBJ,1.051,-0.01471,,P2_1
JVASP-15678,CeCr2Si2C,FAILED_JVASP-15678.cif,0.0,0.0,mBJ,0.0,-0.46363,,P4/mmm
JVASP-71062,CaBeSb,FAILED_JVASP-71062.cif,0.0,0.36,mBJ,0.36,-0.51111,,P-6m2
JVASP-91840,CuSnF6,FAILED_JVASP-91840.cif,0.0,0.0,mBJ,0.0,-2.17167,,R-3
JVASP-69956,Be2CrNi,FAILED_JVASP-69956.cif,0.0,0.0,mBJ,0.0,-0.00433,,F-43m
JVASP-67734,CaBeIr2,FAILED_JVASP-67734.cif,0.0,0.0,mBJ,0.0,-0.11315,,P4mm
JVASP-87038,BaZrF6,FAILED_JVASP-87038.cif,6.423,6.773,mBJ,0.35,-4.02618,,Cmme
JVASP-70507,MnBeSi,FAILED_JVASP-70507.cif,0.0,0.0,mBJ,0.0,0.1911,,P3m1
JVASP-70364,Be2SiTc,FAILED_JVASP-70364.cif,0.0,0.0,mBJ,0.0,-0.26002,,I-4m2
JVASP-5179,BiPt,FAILED_JVASP-5179.cif,0.0,0.0,mBJ,0.0,-0.04832,,P6_3/mmc
JVASP-71167,BeCoMo2,FAILED_JVASP-71167.cif,0.0,0.0,mBJ,0.0,-0.05986,,P4mm
JVASP-69663,Be2PCl,FAILED_JVASP-69663.cif,0.0,0.0,mBJ,0.0,0.28987,,I-4m2
JVASP-75681,VGeAs,FAILED_JVASP-75681.cif,0.0,0.0,mBJ,0.0,0.63654,,F-43m
JVASP-105952,Zr2Al3Co,FAILED_JVASP-105952.cif,0.0,0.0,mBJ,0.0,-0.52513,,R-3m
JVASP-69497,Be2CoPb,FAILED_JVASP-69497.cif,0.0,0.0,mBJ,0.0,0.40675,,P4mm
JVASP-71240,BeCoBr,FAILED_JVASP-71240.cif,0.0,0.0,mBJ,0.0,0.46862,,P3m1
JVASP-18582,ErInAg2,FAILED_JVASP-18582.cif,0.0,0.0,mBJ,0.0,-0.37011,,Fm-3m
JVASP-3612,K2PdCl6,FAILED_JVASP-3612.cif,1.107,1.799,mBJ,0.692,-1.24048,,Fm-3m
JVASP-90711,BaAgSF,FAILED_JVASP-90711.cif,1.535,2.908,mBJ,1.373,-2.17085,,P4/nmm
JVASP-85704,LiHS,FAILED_JVASP-85704.cif,3.462,3.507,mBJ,0.045,-0.84129,,Ama2
JVASP-70735,CaBeNb2,FAILED_JVASP-70735.cif,0.0,0.0,mBJ,0.0,0.28735,,P4mm
JVASP-87169,Ba2MgWO6,FAILED_JVASP-87169.cif,2.822,3.688,mBJ,0.866,-3.03643,,Fm-3m
JVASP-92255,Li2CrFeO4,FAILED_JVASP-92255.cif,0.0,0.0,mBJ,0.0,-1.97918,,C2/m
JVASP-85920,KNaNdNbO5,FAILED_JVASP-85920.cif,3.473,4.412,mBJ,0.939,-2.82973,,P4/nmm
JVASP-91519,SmNiSb2,FAILED_JVASP-91519.cif,0.0,0.0,mBJ,0.0,-0.71783,,P4/nmm
JVASP-70662,NaBe2Pd,FAILED_JVASP-70662.cif,0.0,0.0,mBJ,0.0,0.29365,,I-4m2
JVASP-22682,Sr2MgH6,FAILED_JVASP-22682.cif,3.025,4.131,mBJ,1.106,-0.54755,,P-3m1
JVASP-68221,BeHgPd2,FAILED_JVASP-68221.cif,0.0,0.0,mBJ,0.0,0.04187,,I-4m2
JVASP-15441,CaNi2As2,FAILED_JVASP-15441.cif,0.0,0.0,mBJ,0.0,-0.68126,,I4/mmm
JVASP-91395,FeCoBO4,FAILED_JVASP-91395.cif,0.0,0.0,mBJ,0.0,-1.59455,,Pnma
JVASP-70916,BeCoPd2,FAILED_JVASP-70916.cif,0.0,0.0,mBJ,0.0,-0.19981,,P4mm
JVASP-68027,Na2MnBe,FAILED_JVASP-68027.cif,0.0,0.0,mBJ,0.0,0.75022,,F-43m
JVASP-3426,Li2GePbS4,FAILED_JVASP-3426.cif,2.328,3.009,mBJ,0.681,-0.91773,,I-42m
JVASP-70225,Be2CrFe,FAILED_JVASP-70225.cif,0.0,0.0,mBJ,0.0,-0.06965,,P4mm
JVASP-86152,Rb2Te,FAILED_JVASP-86152.cif,1.882,3.157,mBJ,1.275,-1.09468,,Pnma
JVASP-68283,BeHgRu2,FAILED_JVASP-68283.cif,0.0,0.0,mBJ,0.0,0.56393,,I-4m2
JVASP-71132,MgBeNi2,FAILED_JVASP-71132.cif,0.0,0.0,mBJ,0.0,-0.11397,,P4mm
JVASP-1312,BP,FAILED_JVASP-1312.cif,1.515,1.914,mBJ,0.399,-0.45342,,F-43m
JVASP-74148,MnBeV2,FAILED_JVASP-74148.cif,0.0,0.0,mBJ,0.0,-0.08573,,P4mm
JVASP-18914,NpSe,FAILED_JVASP-18914.cif,0.0,0.0,mBJ,0.0,-1.24859,,Fm-3m
JVASP-18621,TbPbAu,FAILED_JVASP-18621.cif,0.0,0.0,mBJ,0.0,-0.70738,,F-43m
JVASP-105612,K2RbScF6,FAILED_JVASP-105612.cif,6.186,7.66,mBJ,1.474,-3.39878,,Fm-3m
JVASP-91938,GaAgS2,FAILED_JVASP-91938.cif,0.938,2.361,mBJ,1.423,-0.54982,,I-42d
JVASP-3141,YbMg2Sb2,FAILED_JVASP-3141.cif,0.791,1.255,mBJ,0.464,-0.78642,,P-3m1
JVASP-56818,MnSbPt,FAILED_JVASP-56818.cif,0.0,0.0,mBJ,0.0,0.11453,,F-43m
JVASP-85434,CuMoF6,FAILED_JVASP-85434.cif,0.0,0.036,mBJ,0.036,-2.26213,,P-1
JVASP-70954,BeNbOs2,FAILED_JVASP-70954.cif,0.0,0.0,mBJ,0.0,0.04449,,P4mm
JVASP-3792,IrBr3,FAILED_JVASP-3792.cif,1.423,1.704,mBJ,0.281,-0.29524,,C2/m
JVASP-67901,KBeMo2,FAILED_JVASP-67901.cif,0.0,0.0,mBJ,0.0,1.37638,,F-43m
JVASP-67957,BeZn2W,FAILED_JVASP-67957.cif,0.0,0.0,mBJ,0.0,0.28663,,I-4m2
JVASP-69826,YBeTe,FAILED_JVASP-69826.cif,0.0,0.0,mBJ,0.0,-0.29055,,P3m1
JVASP-51470,FeSnRu2,FAILED_JVASP-51470.cif,0.0,0.0,mBJ,0.0,0.06039,,Fm-3m
JVASP-105883,ZnPd3,FAILED_JVASP-105883.cif,0.0,0.0,mBJ,0.0,-0.30017,,Pm-3m
JVASP-70226,HfScBe2,FAILED_JVASP-70226.cif,0.0,0.0,mBJ,0.0,-0.07046,,P4/mmm
JVASP-15006,CrSb2,FAILED_JVASP-15006.cif,0.0,0.0,mBJ,0.0,0.20531,,I4/mcm
JVASP-5284,SrH2,FAILED_JVASP-5284.cif,1.678,2.974,mBJ,1.296,-0.61708,,P6_3/mmc
JVASP-70365,Be2TlFe,FAILED_JVASP-70365.cif,0.0,0.0,mBJ,0.0,0.52368,,P4/mmm
JVASP-69580,MgBe2Tl,FAILED_JVASP-69580.cif,0.0,0.0,mBJ,0.0,0.5807,,I-4m2
JVASP-71241,KScBe2,FAILED_JVASP-71241.cif,0.0,0.0,mBJ,0.0,0.41374,,P4/mmm
JVASP-106036,MgCdTe2,FAILED_JVASP-106036.cif,1.22,2.296,mBJ,1.076,-0.67816,,R3m
JVASP-70127,ZrBe2Cu,FAILED_JVASP-70127.cif,0.0,0.0,mBJ,0.0,0.1472,,P4/mmm
JVASP-92249,LiAgF2,FAILED_JVASP-92249.cif,1.328,3.902,mBJ,2.574,-2.05432,,I-42d
JVASP-18551,RbMnSe2,FAILED_JVASP-18551.cif,0.0,0.0,mBJ,0.0,-0.72168,,I-4m2
JVASP-70882,TiBe2Sn,FAILED_JVASP-70882.cif,0.0,0.0,mBJ,0.0,-0.0154,,P4/mmm
JVASP-71322,BeTcMo,FAILED_JVASP-71322.cif,0.0,0.0,mBJ,0.0,0.22257,,P3m1
JVASP-69499,Be2CrRu,FAILED_JVASP-69499.cif,0.0,0.0,mBJ,0.0,-0.04908,,P4mm
JVASP-71169,BeNbCo4,FAILED_JVASP-71169.cif,0.0,0.0,mBJ,0.0,-0.0636,,F-43m
JVASP-14799,TbFe2,FAILED_JVASP-14799.cif,0.0,0.0,mBJ,0.0,-0.11085,,Fd-3m
JVASP-71027,MnBeRh2,FAILED_JVASP-71027.cif,0.0,0.0,mBJ,0.0,-0.15255,,P4mm
JVASP-67736,ScBeIn,FAILED_JVASP-67736.cif,0.0,0.0,mBJ,0.0,0.00752,,I4mm
JVASP-69962,Be2TcRh,FAILED_JVASP-69962.cif,0.0,0.0,mBJ,0.0,-0.12193,,I-4m2
JVASP-338,TiTe,FAILED_JVASP-338.cif,0.0,0.0,mBJ,0.0,-0.60646,,P6_3/mmc
JVASP-75836,ScAsPt,FAILED_JVASP-75836.cif,0.0,0.0,mBJ,0.0,-1.13695,,F-43m
JVASP-3615,NdBrO,FAILED_JVASP-3615.cif,4.507,5.673,mBJ,1.166,-3.05852,,P4/nmm
JVASP-105953,Zn2GeS3,FAILED_JVASP-105953.cif,1.182,1.696,mBJ,0.514,-0.58176,,P3m1
JVASP-90810,TePb,FAILED_JVASP-90810.cif,1.013,1.306,mBJ,0.293,-0.41685,,Fm-3m
JVASP-70772,BeCoPt2,FAILED_JVASP-70772.cif,0.0,0.0,mBJ,0.0,-0.28845,,P4mm
JVASP-105684,Rb2NaSbI6,FAILED_JVASP-105684.cif,2.033,2.474,mBJ,0.441,-0.99681,,Fm-3m
JVASP-69755,Be2CrGe,FAILED_JVASP-69755.cif,0.0,0.0,mBJ,0.0,-0.03434,,I-4m2
JVASP-18839,ScInPd2,FAILED_JVASP-18839.cif,0.0,0.0,mBJ,0.0,-0.8318,,Fm-3m
JVASP-71547,BeNiBr,FAILED_JVASP-71547.cif,0.0,0.0,mBJ,0.0,0.25086,,P3m1
JVASP-69964,LiBe2Sb,FAILED_JVASP-69964.cif,0.0,0.0,mBJ,0.0,0.29375,,I-4m2
JVASP-85705,Y2H2C,FAILED_JVASP-85705.cif,0.0,0.263,mBJ,0.263,-0.66225,,P-3m1